Program Version,EnergyPlus, Version 23.2.0-7636e6b3e9, YMD=2024.01.24 10:54
1,5,Environment Title[],Latitude[deg],Longitude[deg],Time Zone[],Elevation[m]
2,8,Day of Simulation[],Month[],Day of Month[],DST Indicator[1=yes 0=no],Hour[],StartMinute[],EndMinute[],DayType
3,5,Cumulative Day of Simulation[],Month[],Day of Month[],DST Indicator[1=yes 0=no],DayType  ! When Daily Report Variables Requested
4,2,Cumulative Days of Simulation[],Month[]  ! When Monthly Report Variables Requested
5,1,Cumulative Days of Simulation[] ! When Run Period Report Variables Requested
6,1,Calendar Year of Simulation[] ! When Annual Report Variables Requested
8,1,Electricity:Facility [J] !TimeStep
End of Data Dictionary
1,JACKSONVILLE INTNL ANN CLG .4% CONDNS DB=>MWB 1 HVAC Sizing Pass 1,  30.49, -81.69,  -5.00,  10.00
2,1, 7,21, 0, 1, 0.00,15.00,SummerDesignDay
8,169506785.88739887
2,1, 7,21, 0, 1,15.00,30.00,SummerDesignDay
8,169400736.8329095
2,1, 7,21, 0, 1,30.00,45.00,SummerDesignDay
8,169225756.75922784
2,1, 7,21, 0, 1,45.00,60.00,SummerDesignDay
8,169000040.61442026
2,1, 7,21, 0, 2, 0.00,15.00,SummerDesignDay
8,168830280.20812395
2,1, 7,21, 0, 2,15.00,30.00,SummerDesignDay
8,168635042.96175322
2,1, 7,21, 0, 2,30.00,45.00,SummerDesignDay
8,168415829.66704357
2,1, 7,21, 0, 2,45.00,60.00,SummerDesignDay
8,168175981.5928608
2,1, 7,21, 0, 3, 0.00,15.00,SummerDesignDay
8,167967383.56220037
2,1, 7,21, 0, 3,15.00,30.00,SummerDesignDay
8,167748206.8533048
2,1, 7,21, 0, 3,30.00,45.00,SummerDesignDay
8,167517090.4725803
2,1, 7,21, 0, 3,45.00,60.00,SummerDesignDay
8,167275875.82025018
2,1, 7,21, 0, 4, 0.00,15.00,SummerDesignDay
8,167025163.67079303
2,1, 7,21, 0, 4,15.00,30.00,SummerDesignDay
8,166766449.29995036
2,1, 7,21, 0, 4,30.00,45.00,SummerDesignDay
8,166500460.14775482
2,1, 7,21, 0, 4,45.00,60.00,SummerDesignDay
8,166227520.33087623
2,1, 7,21, 0, 5, 0.00,15.00,SummerDesignDay
8,165996728.4622093
2,1, 7,21, 0, 5,15.00,30.00,SummerDesignDay
8,165762555.33868873
2,1, 7,21, 0, 5,30.00,45.00,SummerDesignDay
8,165524054.30233043
2,1, 7,21, 0, 5,45.00,60.00,SummerDesignDay
8,165281435.9113114
2,1, 7,21, 0, 6, 0.00,15.00,SummerDesignDay
8,165232608.44722882
2,1, 7,21, 0, 6,15.00,30.00,SummerDesignDay
8,165187621.58798024
2,1, 7,21, 0, 6,30.00,45.00,SummerDesignDay
8,161994425.6393278
2,1, 7,21, 0, 6,45.00,60.00,SummerDesignDay
8,162848883.2451344
2,1, 7,21, 0, 7, 0.00,15.00,SummerDesignDay
8,232412283.83893833
2,1, 7,21, 0, 7,15.00,30.00,SummerDesignDay
8,235778474.88685971
2,1, 7,21, 0, 7,30.00,45.00,SummerDesignDay
8,225240092.69949415
2,1, 7,21, 0, 7,45.00,60.00,SummerDesignDay
8,218929490.43393496
2,1, 7,21, 0, 8, 0.00,15.00,SummerDesignDay
8,217880145.48035637
2,1, 7,21, 0, 8,15.00,30.00,SummerDesignDay
8,218197159.92787528
2,1, 7,21, 0, 8,30.00,45.00,SummerDesignDay
8,218861336.8711211
2,1, 7,21, 0, 8,45.00,60.00,SummerDesignDay
8,219891164.83502972
2,1, 7,21, 0, 9, 0.00,15.00,SummerDesignDay
8,221769675.61208457
2,1, 7,21, 0, 9,15.00,30.00,SummerDesignDay
8,224102932.08926782
2,1, 7,21, 0, 9,30.00,45.00,SummerDesignDay
8,225941574.98750797
2,1, 7,21, 0, 9,45.00,60.00,SummerDesignDay
8,227779203.79432765
2,1, 7,21, 0,10, 0.00,15.00,SummerDesignDay
8,229381871.29352108
2,1, 7,21, 0,10,15.00,30.00,SummerDesignDay
8,230945516.64420685
2,1, 7,21, 0,10,30.00,45.00,SummerDesignDay
8,232060714.07474023
2,1, 7,21, 0,10,45.00,60.00,SummerDesignDay
8,233160913.7241108
2,1, 7,21, 0,11, 0.00,15.00,SummerDesignDay
8,234486809.7219962
2,1, 7,21, 0,11,15.00,30.00,SummerDesignDay
8,236064664.9632506
2,1, 7,21, 0,11,30.00,45.00,SummerDesignDay
8,237114794.6691945
2,1, 7,21, 0,11,45.00,60.00,SummerDesignDay
8,238160928.03575054
2,1, 7,21, 0,12, 0.00,15.00,SummerDesignDay
8,238597177.86639515
2,1, 7,21, 0,12,15.00,30.00,SummerDesignDay
8,239079747.36789387
2,1, 7,21, 0,12,30.00,45.00,SummerDesignDay
8,239339520.3378996
2,1, 7,21, 0,12,45.00,60.00,SummerDesignDay
8,239757056.12127057
2,1, 7,21, 0,13, 0.00,15.00,SummerDesignDay
8,240739410.12640056
2,1, 7,21, 0,13,15.00,30.00,SummerDesignDay
8,242453999.8417091
2,1, 7,21, 0,13,30.00,45.00,SummerDesignDay
8,243772247.2648566
2,1, 7,21, 0,13,45.00,60.00,SummerDesignDay
8,245333069.103314
2,1, 7,21, 0,14, 0.00,15.00,SummerDesignDay
8,246763356.1173638
2,1, 7,21, 0,14,15.00,30.00,SummerDesignDay
8,248534776.27988452
2,1, 7,21, 0,14,30.00,45.00,SummerDesignDay
8,250452935.93845147
2,1, 7,21, 0,14,45.00,60.00,SummerDesignDay
8,251970680.17288718
2,1, 7,21, 0,15, 0.00,15.00,SummerDesignDay
8,253547021.13533142
2,1, 7,21, 0,15,15.00,30.00,SummerDesignDay
8,255773128.95388985
2,1, 7,21, 0,15,30.00,45.00,SummerDesignDay
8,257483807.09441444
2,1, 7,21, 0,15,45.00,60.00,SummerDesignDay
8,259151387.2329972
2,1, 7,21, 0,16, 0.00,15.00,SummerDesignDay
8,259734682.76047942
2,1, 7,21, 0,16,15.00,30.00,SummerDesignDay
8,260168514.95468795
2,1, 7,21, 0,16,30.00,45.00,SummerDesignDay
8,260263389.1496197
2,1, 7,21, 0,16,45.00,60.00,SummerDesignDay
8,259816223.5178859
2,1, 7,21, 0,17, 0.00,15.00,SummerDesignDay
8,259464181.14196327
2,1, 7,21, 0,17,15.00,30.00,SummerDesignDay
8,259588481.03658304
2,1, 7,21, 0,17,30.00,45.00,SummerDesignDay
8,258885379.0716265
2,1, 7,21, 0,17,45.00,60.00,SummerDesignDay
8,257921025.40062344
2,1, 7,21, 0,18, 0.00,15.00,SummerDesignDay
8,256440079.0719432
2,1, 7,21, 0,18,15.00,30.00,SummerDesignDay
8,254700734.7879992
2,1, 7,21, 0,18,30.00,45.00,SummerDesignDay
8,252437473.9255341
2,1, 7,21, 0,18,45.00,60.00,SummerDesignDay
8,249597136.46619824
2,1, 7,21, 0,19, 0.00,15.00,SummerDesignDay
8,246294102.86991817
2,1, 7,21, 0,19,15.00,30.00,SummerDesignDay
8,243168193.58524194
2,1, 7,21, 0,19,30.00,45.00,SummerDesignDay
8,239237507.12941176
2,1, 7,21, 0,19,45.00,60.00,SummerDesignDay
8,234987164.98748863
2,1, 7,21, 0,20, 0.00,15.00,SummerDesignDay
8,230481922.95189986
2,1, 7,21, 0,20,15.00,30.00,SummerDesignDay
8,230415323.69460654
2,1, 7,21, 0,20,30.00,45.00,SummerDesignDay
8,228028076.699263
2,1, 7,21, 0,20,45.00,60.00,SummerDesignDay
8,226150293.63356543
2,1, 7,21, 0,21, 0.00,15.00,SummerDesignDay
8,225031673.6527227
2,1, 7,21, 0,21,15.00,30.00,SummerDesignDay
8,224314742.51629934
2,1, 7,21, 0,21,30.00,45.00,SummerDesignDay
8,223069997.36853662
2,1, 7,21, 0,21,45.00,60.00,SummerDesignDay
8,221834246.69153288
2,1, 7,21, 0,22, 0.00,15.00,SummerDesignDay
8,220597300.53715226
2,1, 7,21, 0,22,15.00,30.00,SummerDesignDay
8,219303764.2038252
2,1, 7,21, 0,22,30.00,45.00,SummerDesignDay
8,217339002.88774112
2,1, 7,21, 0,22,45.00,60.00,SummerDesignDay
8,216073799.48425612
2,1, 7,21, 0,23, 0.00,15.00,SummerDesignDay
8,156961140.98755583
2,1, 7,21, 0,23,15.00,30.00,SummerDesignDay
8,161043091.10580635
2,1, 7,21, 0,23,30.00,45.00,SummerDesignDay
8,165474347.79137897
2,1, 7,21, 0,23,45.00,60.00,SummerDesignDay
8,168383908.83045587
2,1, 7,21, 0,24, 0.00,15.00,SummerDesignDay
8,169491193.4893923
2,1, 7,21, 0,24,15.00,30.00,SummerDesignDay
8,169566591.00296617
2,1, 7,21, 0,24,30.00,45.00,SummerDesignDay
8,169537434.0820511
2,1, 7,21, 0,24,45.00,60.00,SummerDesignDay
8,169720935.4148198
1,JACKSONVILLE INTNL ANN CLG .4% CONDNS WB=>MDB 1 HVAC Sizing Pass 1,  30.49, -81.69,  -5.00,  10.00
2,1, 7,21, 0, 1, 0.00,15.00,SummerDesignDay
8,162195467.9743934
2,1, 7,21, 0, 1,15.00,30.00,SummerDesignDay
8,161849222.8850475
2,1, 7,21, 0, 1,30.00,45.00,SummerDesignDay
8,161421554.43284813
2,1, 7,21, 0, 1,45.00,60.00,SummerDesignDay
8,160933481.91912407
2,1, 7,21, 0, 2, 0.00,15.00,SummerDesignDay
8,160563900.97382227
2,1, 7,21, 0, 2,15.00,30.00,SummerDesignDay
8,160159808.7470075
2,1, 7,21, 0, 2,30.00,45.00,SummerDesignDay
8,159726167.22368962
2,1, 7,21, 0, 2,45.00,60.00,SummerDesignDay
8,159267308.47009426
2,1, 7,21, 0, 3, 0.00,15.00,SummerDesignDay
8,158871361.4268959
2,1, 7,21, 0, 3,15.00,30.00,SummerDesignDay
8,158458914.45192665
2,1, 7,21, 0, 3,30.00,45.00,SummerDesignDay
8,158031157.4314836
2,1, 7,21, 0, 3,45.00,60.00,SummerDesignDay
8,157588553.03101367
2,1, 7,21, 0, 4, 0.00,15.00,SummerDesignDay
8,157132566.54599345
2,1, 7,21, 0, 4,15.00,30.00,SummerDesignDay
8,156663874.42053357
2,1, 7,21, 0, 4,30.00,45.00,SummerDesignDay
8,156182208.1368685
2,1, 7,21, 0, 4,45.00,60.00,SummerDesignDay
8,155687640.02884993
2,1, 7,21, 0, 5, 0.00,15.00,SummerDesignDay
8,155270647.6373879
2,1, 7,21, 0, 5,15.00,30.00,SummerDesignDay
8,154916553.2611386
2,1, 7,21, 0, 5,30.00,45.00,SummerDesignDay
8,154439679.7039287
2,1, 7,21, 0, 5,45.00,60.00,SummerDesignDay
8,154090778.66836724
2,1, 7,21, 0, 6, 0.00,15.00,SummerDesignDay
8,154022018.9036163
2,1, 7,21, 0, 6,15.00,30.00,SummerDesignDay
8,154208714.09131244
2,1, 7,21, 0, 6,30.00,45.00,SummerDesignDay
8,151068965.78558055
2,1, 7,21, 0, 6,45.00,60.00,SummerDesignDay
8,152465901.89464745
2,1, 7,21, 0, 7, 0.00,15.00,SummerDesignDay
8,220312658.61812636
2,1, 7,21, 0, 7,15.00,30.00,SummerDesignDay
8,221438108.4185925
2,1, 7,21, 0, 7,30.00,45.00,SummerDesignDay
8,210280571.87510267
2,1, 7,21, 0, 7,45.00,60.00,SummerDesignDay
8,204653390.01519963
2,1, 7,21, 0, 8, 0.00,15.00,SummerDesignDay
8,203431557.83329216
2,1, 7,21, 0, 8,15.00,30.00,SummerDesignDay
8,204104667.55612868
2,1, 7,21, 0, 8,30.00,45.00,SummerDesignDay
8,205328256.40310523
2,1, 7,21, 0, 8,45.00,60.00,SummerDesignDay
8,207082063.48927897
2,1, 7,21, 0, 9, 0.00,15.00,SummerDesignDay
8,209760328.6041698
2,1, 7,21, 0, 9,15.00,30.00,SummerDesignDay
8,212431618.5178614
2,1, 7,21, 0, 9,30.00,45.00,SummerDesignDay
8,214419820.1787964
2,1, 7,21, 0, 9,45.00,60.00,SummerDesignDay
8,216197005.41332638
2,1, 7,21, 0,10, 0.00,15.00,SummerDesignDay
8,217631780.56843126
2,1, 7,21, 0,10,15.00,30.00,SummerDesignDay
8,218977673.37230125
2,1, 7,21, 0,10,30.00,45.00,SummerDesignDay
8,219867748.4131471
2,1, 7,21, 0,10,45.00,60.00,SummerDesignDay
8,220746596.58702135
2,1, 7,21, 0,11, 0.00,15.00,SummerDesignDay
8,221880232.62708086
2,1, 7,21, 0,11,15.00,30.00,SummerDesignDay
8,223283429.0629416
2,1, 7,21, 0,11,30.00,45.00,SummerDesignDay
8,224162707.53278193
2,1, 7,21, 0,11,45.00,60.00,SummerDesignDay
8,225047353.8918434
2,1, 7,21, 0,12, 0.00,15.00,SummerDesignDay
8,225387100.96421504
2,1, 7,21, 0,12,15.00,30.00,SummerDesignDay
8,225779483.0634592
2,1, 7,21, 0,12,30.00,45.00,SummerDesignDay
8,225950131.26715702
2,1, 7,21, 0,12,45.00,60.00,SummerDesignDay
8,226262478.3798889
2,1, 7,21, 0,13, 0.00,15.00,SummerDesignDay
8,227141800.6514074
2,1, 7,21, 0,13,15.00,30.00,SummerDesignDay
8,228731890.71454272
2,1, 7,21, 0,13,30.00,45.00,SummerDesignDay
8,229900253.5762037
2,1, 7,21, 0,13,45.00,60.00,SummerDesignDay
8,231284366.3471561
2,1, 7,21, 0,14, 0.00,15.00,SummerDesignDay
8,232543078.0674504
2,1, 7,21, 0,14,15.00,30.00,SummerDesignDay
8,234108450.8775641
2,1, 7,21, 0,14,30.00,45.00,SummerDesignDay
8,235796617.19302905
2,1, 7,21, 0,14,45.00,60.00,SummerDesignDay
8,237055164.6522958
2,1, 7,21, 0,15, 0.00,15.00,SummerDesignDay
8,238421016.65463084
2,1, 7,21, 0,15,15.00,30.00,SummerDesignDay
8,240434714.38428482
2,1, 7,21, 0,15,30.00,45.00,SummerDesignDay
8,241940909.09373048
2,1, 7,21, 0,15,45.00,60.00,SummerDesignDay
8,243400228.33641142
2,1, 7,21, 0,16, 0.00,15.00,SummerDesignDay
8,243883055.442728
2,1, 7,21, 0,16,15.00,30.00,SummerDesignDay
8,244239822.26945883
2,1, 7,21, 0,16,30.00,45.00,SummerDesignDay
8,244289529.71158803
2,1, 7,21, 0,16,45.00,60.00,SummerDesignDay
8,243824099.8344492
2,1, 7,21, 0,17, 0.00,15.00,SummerDesignDay
8,243511234.92806506
2,1, 7,21, 0,17,15.00,30.00,SummerDesignDay
8,243705785.88659886
2,1, 7,21, 0,17,30.00,45.00,SummerDesignDay
8,243100217.92963672
2,1, 7,21, 0,17,45.00,60.00,SummerDesignDay
8,242260914.69551215
2,1, 7,21, 0,18, 0.00,15.00,SummerDesignDay
8,240967551.3912876
2,1, 7,21, 0,18,15.00,30.00,SummerDesignDay
8,239449689.26423824
2,1, 7,21, 0,18,30.00,45.00,SummerDesignDay
8,237445305.61810246
2,1, 7,21, 0,18,45.00,60.00,SummerDesignDay
8,234902159.60919932
2,1, 7,21, 0,19, 0.00,15.00,SummerDesignDay
8,232009251.00853932
2,1, 7,21, 0,19,15.00,30.00,SummerDesignDay
8,229356796.00964442
2,1, 7,21, 0,19,30.00,45.00,SummerDesignDay
8,225928117.06146568
2,1, 7,21, 0,19,45.00,60.00,SummerDesignDay
8,222222437.29428646
2,1, 7,21, 0,20, 0.00,15.00,SummerDesignDay
8,218291726.67128417
2,1, 7,21, 0,20,15.00,30.00,SummerDesignDay
8,218742446.27624837
2,1, 7,21, 0,20,30.00,45.00,SummerDesignDay
8,216692113.14263064
2,1, 7,21, 0,20,45.00,60.00,SummerDesignDay
8,215116417.33710042
2,1, 7,21, 0,21, 0.00,15.00,SummerDesignDay
8,214234286.77215657
2,1, 7,21, 0,21,15.00,30.00,SummerDesignDay
8,213725321.6295093
2,1, 7,21, 0,21,30.00,45.00,SummerDesignDay
8,212672450.34480873
2,1, 7,21, 0,21,45.00,60.00,SummerDesignDay
8,211621026.65452763
2,1, 7,21, 0,22, 0.00,15.00,SummerDesignDay
8,210565067.3866964
2,1, 7,21, 0,22,15.00,30.00,SummerDesignDay
8,209451718.53971517
2,1, 7,21, 0,22,30.00,45.00,SummerDesignDay
8,207667057.50860912
2,1, 7,21, 0,22,45.00,60.00,SummerDesignDay
8,206583057.16326356
2,1, 7,21, 0,23, 0.00,15.00,SummerDesignDay
8,149986280.39480165
2,1, 7,21, 0,23,15.00,30.00,SummerDesignDay
8,152687560.45046553
2,1, 7,21, 0,23,30.00,45.00,SummerDesignDay
8,158522219.99757472
2,1, 7,21, 0,23,45.00,60.00,SummerDesignDay
8,161334505.81268552
2,1, 7,21, 0,24, 0.00,15.00,SummerDesignDay
8,162807234.71698225
2,1, 7,21, 0,24,15.00,30.00,SummerDesignDay
8,162713413.58110973
2,1, 7,21, 0,24,30.00,45.00,SummerDesignDay
8,162697025.5198916
2,1, 7,21, 0,24,45.00,60.00,SummerDesignDay
8,162674001.82155278
1,JACKSONVILLE INTNL ANN CLG 1% CONDNS DB=>MWB 1 HVAC Sizing Pass 1,  30.49, -81.69,  -5.00,  10.00
2,1, 7,21, 0, 1, 0.00,15.00,SummerDesignDay
8,166279245.24380904
2,1, 7,21, 0, 1,15.00,30.00,SummerDesignDay
8,166163344.59371105
2,1, 7,21, 0, 1,30.00,45.00,SummerDesignDay
8,165979973.39532492
2,1, 7,21, 0, 1,45.00,60.00,SummerDesignDay
8,165745841.2058075
2,1, 7,21, 0, 2, 0.00,15.00,SummerDesignDay
8,165570621.5841515
2,1, 7,21, 0, 2,15.00,30.00,SummerDesignDay
8,165366103.8486587
2,1, 7,21, 0, 2,30.00,45.00,SummerDesignDay
8,165135741.7786173
2,1, 7,21, 0, 2,45.00,60.00,SummerDesignDay
8,164883253.19224164
2,1, 7,21, 0, 3, 0.00,15.00,SummerDesignDay
8,164661926.0352859
2,1, 7,21, 0, 3,15.00,30.00,SummerDesignDay
8,164425831.48243666
2,1, 7,21, 0, 3,30.00,45.00,SummerDesignDay
8,164176010.00269565
2,1, 7,21, 0, 3,45.00,60.00,SummerDesignDay
8,163913866.39755407
2,1, 7,21, 0, 4, 0.00,15.00,SummerDesignDay
8,163640632.891372
2,1, 7,21, 0, 4,15.00,30.00,SummerDesignDay
8,163357302.31351298
2,1, 7,21, 0, 4,30.00,45.00,SummerDesignDay
8,163064680.3299988
2,1, 7,21, 0, 4,45.00,60.00,SummerDesignDay
8,162763432.05399895
2,1, 7,21, 0, 5, 0.00,15.00,SummerDesignDay
8,162507698.8458953
2,1, 7,21, 0, 5,15.00,30.00,SummerDesignDay
8,162247057.04051745
2,1, 7,21, 0, 5,30.00,45.00,SummerDesignDay
8,161980755.22757804
2,1, 7,21, 0, 5,45.00,60.00,SummerDesignDay
8,161708734.53435984
2,1, 7,21, 0, 6, 0.00,15.00,SummerDesignDay
8,161652958.30587465
2,1, 7,21, 0, 6,15.00,30.00,SummerDesignDay
8,161601343.58683944
2,1, 7,21, 0, 6,30.00,45.00,SummerDesignDay
8,158482446.36634573
2,1, 7,21, 0, 6,45.00,60.00,SummerDesignDay
8,159476204.6616929
2,1, 7,21, 0, 7, 0.00,15.00,SummerDesignDay
8,226369394.7955004
2,1, 7,21, 0, 7,15.00,30.00,SummerDesignDay
8,229149448.40627608
2,1, 7,21, 0, 7,30.00,45.00,SummerDesignDay
8,218748380.71084094
2,1, 7,21, 0, 7,45.00,60.00,SummerDesignDay
8,212662365.7808159
2,1, 7,21, 0, 8, 0.00,15.00,SummerDesignDay
8,211448907.4324775
2,1, 7,21, 0, 8,15.00,30.00,SummerDesignDay
8,211683539.48343116
2,1, 7,21, 0, 8,30.00,45.00,SummerDesignDay
8,212237801.0090985
2,1, 7,21, 0, 8,45.00,60.00,SummerDesignDay
8,213159106.59252015
2,1, 7,21, 0, 9, 0.00,15.00,SummerDesignDay
8,214915781.89265066
2,1, 7,21, 0, 9,15.00,30.00,SummerDesignDay
8,217123610.37534678
2,1, 7,21, 0, 9,30.00,45.00,SummerDesignDay
8,218831378.95997685
2,1, 7,21, 0, 9,45.00,60.00,SummerDesignDay
8,220538394.06733984
2,1, 7,21, 0,10, 0.00,15.00,SummerDesignDay
8,222024507.14038813
2,1, 7,21, 0,10,15.00,30.00,SummerDesignDay
8,223473834.55149823
2,1, 7,21, 0,10,30.00,45.00,SummerDesignDay
8,224477685.07818943
2,1, 7,21, 0,10,45.00,60.00,SummerDesignDay
8,225469503.75633383
2,1, 7,21, 0,11, 0.00,15.00,SummerDesignDay
8,226704631.8525437
2,1, 7,21, 0,11,15.00,30.00,SummerDesignDay
8,228201731.1625049
2,1, 7,21, 0,11,30.00,45.00,SummerDesignDay
8,229168983.6707776
2,1, 7,21, 0,11,45.00,60.00,SummerDesignDay
8,230133115.11141223
2,1, 7,21, 0,12, 0.00,15.00,SummerDesignDay
8,230526540.27838317
2,1, 7,21, 0,12,15.00,30.00,SummerDesignDay
8,230965397.89806145
2,1, 7,21, 0,12,30.00,45.00,SummerDesignDay
8,231176931.0383391
2,1, 7,21, 0,12,45.00,60.00,SummerDesignDay
8,231532960.246106
2,1, 7,21, 0,13, 0.00,15.00,SummerDesignDay
8,232457100.2294439
2,1, 7,21, 0,13,15.00,30.00,SummerDesignDay
8,234103463.36784416
2,1, 7,21, 0,13,30.00,45.00,SummerDesignDay
8,235339139.9323645
2,1, 7,21, 0,13,45.00,60.00,SummerDesignDay
8,236804342.08164057
2,1, 7,21, 0,14, 0.00,15.00,SummerDesignDay
8,238149044.95018074
2,1, 7,21, 0,14,15.00,30.00,SummerDesignDay
8,239817619.56139266
2,1, 7,21, 0,14,30.00,45.00,SummerDesignDay
8,241621233.97319767
2,1, 7,21, 0,14,45.00,60.00,SummerDesignDay
8,243015569.25167888
2,1, 7,21, 0,15, 0.00,15.00,SummerDesignDay
8,244503026.27920565
2,1, 7,21, 0,15,15.00,30.00,SummerDesignDay
8,246640738.9833618
2,1, 7,21, 0,15,30.00,45.00,SummerDesignDay
8,248265504.83067164
2,1, 7,21, 0,15,45.00,60.00,SummerDesignDay
8,249843190.606323
2,1, 7,21, 0,16, 0.00,15.00,SummerDesignDay
8,250403554.57719627
2,1, 7,21, 0,16,15.00,30.00,SummerDesignDay
8,250823189.24797252
2,1, 7,21, 0,16,30.00,45.00,SummerDesignDay
8,250913735.1303909
2,1, 7,21, 0,16,45.00,60.00,SummerDesignDay
8,250471855.13802812
2,1, 7,21, 0,17, 0.00,15.00,SummerDesignDay
8,250154352.73850596
2,1, 7,21, 0,17,15.00,30.00,SummerDesignDay
8,250326009.6428507
2,1, 7,21, 0,17,30.00,45.00,SummerDesignDay
8,249680036.00075623
2,1, 7,21, 0,17,45.00,60.00,SummerDesignDay
8,248783566.86948615
2,1, 7,21, 0,18, 0.00,15.00,SummerDesignDay
8,247402233.69379634
2,1, 7,21, 0,18,15.00,30.00,SummerDesignDay
8,245776060.97295827
2,1, 7,21, 0,18,30.00,45.00,SummerDesignDay
8,243641094.63656583
2,1, 7,21, 0,18,45.00,60.00,SummerDesignDay
8,240945303.4473793
2,1, 7,21, 0,19, 0.00,15.00,SummerDesignDay
8,237846390.67112663
2,1, 7,21, 0,19,15.00,30.00,SummerDesignDay
8,234953106.77180755
2,1, 7,21, 0,19,30.00,45.00,SummerDesignDay
8,231261561.16479823
2,1, 7,21, 0,19,45.00,60.00,SummerDesignDay
8,227266562.46486497
2,1, 7,21, 0,20, 0.00,15.00,SummerDesignDay
8,223028333.04568064
2,1, 7,21, 0,20,15.00,30.00,SummerDesignDay
8,223182341.06563637
2,1, 7,21, 0,20,30.00,45.00,SummerDesignDay
8,220915993.00615227
2,1, 7,21, 0,20,45.00,60.00,SummerDesignDay
8,219150536.0237718
2,1, 7,21, 0,21, 0.00,15.00,SummerDesignDay
8,218122714.88948834
2,1, 7,21, 0,21,15.00,30.00,SummerDesignDay
8,217492169.07793376
2,1, 7,21, 0,21,30.00,45.00,SummerDesignDay
8,216331257.21297553
2,1, 7,21, 0,21,45.00,60.00,SummerDesignDay
8,215177443.27686578
2,1, 7,21, 0,22, 0.00,15.00,SummerDesignDay
8,214022108.4680463
2,1, 7,21, 0,22,15.00,30.00,SummerDesignDay
8,212810373.34237304
2,1, 7,21, 0,22,30.00,45.00,SummerDesignDay
8,210927593.6223109
2,1, 7,21, 0,22,45.00,60.00,SummerDesignDay
8,209744842.19604656
2,1, 7,21, 0,23, 0.00,15.00,SummerDesignDay
8,153400936.91096154
2,1, 7,21, 0,23,15.00,30.00,SummerDesignDay
8,157191346.3235488
2,1, 7,21, 0,23,30.00,45.00,SummerDesignDay
8,162025581.97231457
2,1, 7,21, 0,23,45.00,60.00,SummerDesignDay
8,165054107.87099105
2,1, 7,21, 0,24, 0.00,15.00,SummerDesignDay
8,166275108.97726792
2,1, 7,21, 0,24,15.00,30.00,SummerDesignDay
8,166381022.2963824
2,1, 7,21, 0,24,30.00,45.00,SummerDesignDay
8,166347886.02263832
2,1, 7,21, 0,24,45.00,60.00,SummerDesignDay
8,166510996.09393105
1,JACKSONVILLE INTNL ANN CLG 2% CONDNS DP=>MDB 1 HVAC Sizing Pass 1,  30.49, -81.69,  -5.00,  10.00
2,1, 7,21, 0, 1, 0.00,15.00,SummerDesignDay
8,141968524.01858798
2,1, 7,21, 0, 1,15.00,30.00,SummerDesignDay
8,141891057.69255602
2,1, 7,21, 0, 1,30.00,45.00,SummerDesignDay
8,141736689.60801667
2,1, 7,21, 0, 1,45.00,60.00,SummerDesignDay
8,141754248.65649015
2,1, 7,21, 0, 2, 0.00,15.00,SummerDesignDay
8,141741263.02183232
2,1, 7,21, 0, 2,15.00,30.00,SummerDesignDay
8,141431595.1314896
2,1, 7,21, 0, 2,30.00,45.00,SummerDesignDay
8,141379123.21473095
2,1, 7,21, 0, 2,45.00,60.00,SummerDesignDay
8,141118865.06821173
2,1, 7,21, 0, 3, 0.00,15.00,SummerDesignDay
8,140875559.20467928
2,1, 7,21, 0, 3,15.00,30.00,SummerDesignDay
8,140752233.58737344
2,1, 7,21, 0, 3,30.00,45.00,SummerDesignDay
8,140700836.09836608
2,1, 7,21, 0, 3,45.00,60.00,SummerDesignDay
8,140757022.6661315
2,1, 7,21, 0, 4, 0.00,15.00,SummerDesignDay
8,140628776.08918792
2,1, 7,21, 0, 4,15.00,30.00,SummerDesignDay
8,140260965.8234523
2,1, 7,21, 0, 4,30.00,45.00,SummerDesignDay
8,139978554.35595322
2,1, 7,21, 0, 4,45.00,60.00,SummerDesignDay
8,139843179.36446166
2,1, 7,21, 0, 5, 0.00,15.00,SummerDesignDay
8,139520152.14744192
2,1, 7,21, 0, 5,15.00,30.00,SummerDesignDay
8,139626686.51977748
2,1, 7,21, 0, 5,30.00,45.00,SummerDesignDay
8,139389424.40255663
2,1, 7,21, 0, 5,45.00,60.00,SummerDesignDay
8,139100833.75348064
2,1, 7,21, 0, 6, 0.00,15.00,SummerDesignDay
8,139121329.04887858
2,1, 7,21, 0, 6,15.00,30.00,SummerDesignDay
8,139045386.58458227
2,1, 7,21, 0, 6,30.00,45.00,SummerDesignDay
8,135718545.37902418
2,1, 7,21, 0, 6,45.00,60.00,SummerDesignDay
8,135812255.07400015
2,1, 7,21, 0, 7, 0.00,15.00,SummerDesignDay
8,184819186.72796598
2,1, 7,21, 0, 7,15.00,30.00,SummerDesignDay
8,178036553.9443546
2,1, 7,21, 0, 7,30.00,45.00,SummerDesignDay
8,177441886.16954726
2,1, 7,21, 0, 7,45.00,60.00,SummerDesignDay
8,172946133.34564564
2,1, 7,21, 0, 8, 0.00,15.00,SummerDesignDay
8,172539952.61240068
2,1, 7,21, 0, 8,15.00,30.00,SummerDesignDay
8,173052948.9809332
2,1, 7,21, 0, 8,30.00,45.00,SummerDesignDay
8,173706767.43556753
2,1, 7,21, 0, 8,45.00,60.00,SummerDesignDay
8,174762434.69995806
2,1, 7,21, 0, 9, 0.00,15.00,SummerDesignDay
8,176671371.935136
2,1, 7,21, 0, 9,15.00,30.00,SummerDesignDay
8,179076294.55635828
2,1, 7,21, 0, 9,30.00,45.00,SummerDesignDay
8,181062011.65000722
2,1, 7,21, 0, 9,45.00,60.00,SummerDesignDay
8,183130900.06479865
2,1, 7,21, 0,10, 0.00,15.00,SummerDesignDay
8,185050727.36467814
2,1, 7,21, 0,10,15.00,30.00,SummerDesignDay
8,186967808.79609218
2,1, 7,21, 0,10,30.00,45.00,SummerDesignDay
8,188470246.59804758
2,1, 7,21, 0,10,45.00,60.00,SummerDesignDay
8,189996299.6020413
2,1, 7,21, 0,11, 0.00,15.00,SummerDesignDay
8,191813336.8636048
2,1, 7,21, 0,11,15.00,30.00,SummerDesignDay
8,193568081.00282797
2,1, 7,21, 0,11,30.00,45.00,SummerDesignDay
8,194594583.2680917
2,1, 7,21, 0,11,45.00,60.00,SummerDesignDay
8,195460353.40411612
2,1, 7,21, 0,12, 0.00,15.00,SummerDesignDay
8,195789440.3032709
2,1, 7,21, 0,12,15.00,30.00,SummerDesignDay
8,196103802.77306408
2,1, 7,21, 0,12,30.00,45.00,SummerDesignDay
8,196151549.38424236
2,1, 7,21, 0,12,45.00,60.00,SummerDesignDay
8,196290692.5338943
2,1, 7,21, 0,13, 0.00,15.00,SummerDesignDay
8,197003017.2615129
2,1, 7,21, 0,13,15.00,30.00,SummerDesignDay
8,198386118.13876674
2,1, 7,21, 0,13,30.00,45.00,SummerDesignDay
8,199311797.2015237
2,1, 7,21, 0,13,45.00,60.00,SummerDesignDay
8,200412239.37690213
2,1, 7,21, 0,14, 0.00,15.00,SummerDesignDay
8,201425046.75130716
2,1, 7,21, 0,14,15.00,30.00,SummerDesignDay
8,202685492.60949308
2,1, 7,21, 0,14,30.00,45.00,SummerDesignDay
8,204024630.9482723
2,1, 7,21, 0,14,45.00,60.00,SummerDesignDay
8,204904205.6014386
2,1, 7,21, 0,15, 0.00,15.00,SummerDesignDay
8,206024104.06238973
2,1, 7,21, 0,15,15.00,30.00,SummerDesignDay
8,207786937.1422019
2,1, 7,21, 0,15,30.00,45.00,SummerDesignDay
8,209045932.90668067
2,1, 7,21, 0,15,45.00,60.00,SummerDesignDay
8,210245747.69264376
2,1, 7,21, 0,16, 0.00,15.00,SummerDesignDay
8,210691341.470462
2,1, 7,21, 0,16,15.00,30.00,SummerDesignDay
8,211039209.7580569
2,1, 7,21, 0,16,30.00,45.00,SummerDesignDay
8,211107749.4229407
2,1, 7,21, 0,16,45.00,60.00,SummerDesignDay
8,210690329.7610719
2,1, 7,21, 0,17, 0.00,15.00,SummerDesignDay
8,210522280.06935838
2,1, 7,21, 0,17,15.00,30.00,SummerDesignDay
8,210905423.6451253
2,1, 7,21, 0,17,30.00,45.00,SummerDesignDay
8,210515087.19099045
2,1, 7,21, 0,17,45.00,60.00,SummerDesignDay
8,209925353.3582187
2,1, 7,21, 0,18, 0.00,15.00,SummerDesignDay
8,208983323.2892698
2,1, 7,21, 0,18,15.00,30.00,SummerDesignDay
8,207858703.43687013
2,1, 7,21, 0,18,30.00,45.00,SummerDesignDay
8,206291633.34275267
2,1, 7,21, 0,18,45.00,60.00,SummerDesignDay
8,204235371.914081
2,1, 7,21, 0,19, 0.00,15.00,SummerDesignDay
8,202021185.88873753
2,1, 7,21, 0,19,15.00,30.00,SummerDesignDay
8,200134502.39535838
2,1, 7,21, 0,19,30.00,45.00,SummerDesignDay
8,197309139.54419878
2,1, 7,21, 0,19,45.00,60.00,SummerDesignDay
8,193970459.18086
2,1, 7,21, 0,20, 0.00,15.00,SummerDesignDay
8,190482473.74960372
2,1, 7,21, 0,20,15.00,30.00,SummerDesignDay
8,191263579.55358115
2,1, 7,21, 0,20,30.00,45.00,SummerDesignDay
8,189001996.90964404
2,1, 7,21, 0,20,45.00,60.00,SummerDesignDay
8,187173314.8977188
2,1, 7,21, 0,21, 0.00,15.00,SummerDesignDay
8,186040702.14500862
2,1, 7,21, 0,21,15.00,30.00,SummerDesignDay
8,185296103.4615586
2,1, 7,21, 0,21,30.00,45.00,SummerDesignDay
8,184026879.5177259
2,1, 7,21, 0,21,45.00,60.00,SummerDesignDay
8,182771142.60894728
2,1, 7,21, 0,22, 0.00,15.00,SummerDesignDay
8,181519248.51613706
2,1, 7,21, 0,22,15.00,30.00,SummerDesignDay
8,180235038.976335
2,1, 7,21, 0,22,30.00,45.00,SummerDesignDay
8,178282595.49354044
2,1, 7,21, 0,22,45.00,60.00,SummerDesignDay
8,177033390.24568626
2,1, 7,21, 0,23, 0.00,15.00,SummerDesignDay
8,137446442.4910101
2,1, 7,21, 0,23,15.00,30.00,SummerDesignDay
8,137498313.84775746
2,1, 7,21, 0,23,30.00,45.00,SummerDesignDay
8,137754181.401342
2,1, 7,21, 0,23,45.00,60.00,SummerDesignDay
8,140208579.6018656
2,1, 7,21, 0,24, 0.00,15.00,SummerDesignDay
8,143066653.56561846
2,1, 7,21, 0,24,15.00,30.00,SummerDesignDay
8,142060376.86919707
2,1, 7,21, 0,24,30.00,45.00,SummerDesignDay
8,142032706.416099
2,1, 7,21, 0,24,45.00,60.00,SummerDesignDay
8,142143192.0119013
1,JACKSONVILLE INTNL ANN HTG 99% CONDNS DB 1 HVAC Sizing Pass 1,  30.49, -81.69,  -5.00,  10.00
2,1, 1,21, 0, 1, 0.00,15.00,WinterDesignDay
8,268600215.0557688
2,1, 1,21, 0, 1,15.00,30.00,WinterDesignDay
8,268600454.1795632
2,1, 1,21, 0, 1,30.00,45.00,WinterDesignDay
8,268600689.710529
2,1, 1,21, 0, 1,45.00,60.00,WinterDesignDay
8,268600921.704589
2,1, 1,21, 0, 2, 0.00,15.00,WinterDesignDay
8,268601150.21676517
2,1, 1,21, 0, 2,15.00,30.00,WinterDesignDay
8,268601375.3011905
2,1, 1,21, 0, 2,30.00,45.00,WinterDesignDay
8,268601597.01112676
2,1, 1,21, 0, 2,45.00,60.00,WinterDesignDay
8,268601815.3989764
2,1, 1,21, 0, 3, 0.00,15.00,WinterDesignDay
8,268602030.5162993
2,1, 1,21, 0, 3,15.00,30.00,WinterDesignDay
8,268602242.41382504
2,1, 1,21, 0, 3,30.00,45.00,WinterDesignDay
8,268602451.1414681
2,1, 1,21, 0, 3,45.00,60.00,WinterDesignDay
8,268602656.7483394
2,1, 1,21, 0, 4, 0.00,15.00,WinterDesignDay
8,268602859.28276336
2,1, 1,21, 0, 4,15.00,30.00,WinterDesignDay
8,268603058.7922871
2,1, 1,21, 0, 4,30.00,45.00,WinterDesignDay
8,268603255.32369506
2,1, 1,21, 0, 4,45.00,60.00,WinterDesignDay
8,268603448.9230232
2,1, 1,21, 0, 5, 0.00,15.00,WinterDesignDay
8,268603639.63556826
2,1, 1,21, 0, 5,15.00,30.00,WinterDesignDay
8,268603827.505902
2,1, 1,21, 0, 5,30.00,45.00,WinterDesignDay
8,268604012.57788426
2,1, 1,21, 0, 5,45.00,60.00,WinterDesignDay
8,268604194.8946714
2,1, 1,21, 0, 6, 0.00,15.00,WinterDesignDay
8,268604374.4987317
2,1, 1,21, 0, 6,15.00,30.00,WinterDesignDay
8,268604551.43185455
2,1, 1,21, 0, 6,30.00,45.00,WinterDesignDay
8,268604725.7351619
2,1, 1,21, 0, 6,45.00,60.00,WinterDesignDay
8,268604897.4491201
2,1, 1,21, 0, 7, 0.00,15.00,WinterDesignDay
8,268831404.8479391
2,1, 1,21, 0, 7,15.00,30.00,WinterDesignDay
8,269364513.96128327
2,1, 1,21, 0, 7,30.00,45.00,WinterDesignDay
8,269364678.14359176
2,1, 1,21, 0, 7,45.00,60.00,WinterDesignDay
8,269364839.89206946
2,1, 1,21, 0, 8, 0.00,15.00,WinterDesignDay
8,269364999.24406123
2,1, 1,21, 0, 8,15.00,30.00,WinterDesignDay
8,265871855.96180448
2,1, 1,21, 0, 8,30.00,45.00,WinterDesignDay
8,265786515.96277478
2,1, 1,21, 0, 8,45.00,60.00,WinterDesignDay
8,265113463.30029553
2,1, 1,21, 0, 9, 0.00,15.00,WinterDesignDay
8,265113613.42806575
2,1, 1,21, 0, 9,15.00,30.00,WinterDesignDay
8,265783536.4754669
2,1, 1,21, 0, 9,30.00,45.00,WinterDesignDay
8,265872606.77302772
2,1, 1,21, 0, 9,45.00,60.00,WinterDesignDay
8,265872750.3466203
2,1, 1,21, 0,10, 0.00,15.00,WinterDesignDay
8,265872891.8019156
2,1, 1,21, 0,10,15.00,30.00,WinterDesignDay
8,265873031.1712536
2,1, 1,21, 0,10,30.00,45.00,WinterDesignDay
8,265873168.48646373
2,1, 1,21, 0,10,45.00,60.00,WinterDesignDay
8,265578006.23059863
2,1, 1,21, 0,11, 0.00,15.00,WinterDesignDay
8,265114737.36839336
2,1, 1,21, 0,11,15.00,30.00,WinterDesignDay
8,265254790.1253622
2,1, 1,21, 0,11,30.00,45.00,WinterDesignDay
8,265873697.82516775
2,1, 1,21, 0,11,45.00,60.00,WinterDesignDay
8,265873825.3298513
2,1, 1,21, 0,12, 0.00,15.00,WinterDesignDay
8,265873950.96110007
2,1, 1,21, 0,12,15.00,30.00,WinterDesignDay
8,265874074.74739054
2,1, 1,21, 0,12,30.00,45.00,WinterDesignDay
8,265874196.71675032
2,1, 1,21, 0,12,45.00,60.00,WinterDesignDay
8,265874316.89676598
2,1, 1,21, 0,13, 0.00,15.00,WinterDesignDay
8,265487378.2602468
2,1, 1,21, 0,13,15.00,30.00,WinterDesignDay
8,265115852.2860368
2,1, 1,21, 0,13,30.00,45.00,WinterDesignDay
8,265351643.76132748
2,1, 1,21, 0,13,45.00,60.00,WinterDesignDay
8,265874780.26009342
2,1, 1,21, 0,14, 0.00,15.00,WinterDesignDay
8,265874891.89225635
2,1, 1,21, 0,14,15.00,30.00,WinterDesignDay
8,265875001.89173135
2,1, 1,21, 0,14,30.00,45.00,WinterDesignDay
8,265875110.2832132
2,1, 1,21, 0,14,45.00,60.00,WinterDesignDay
8,265875217.09101024
2,1, 1,21, 0,15, 0.00,15.00,WinterDesignDay
8,265875322.3390503
2,1, 1,21, 0,15,15.00,30.00,WinterDesignDay
8,265162168.02451682
2,1, 1,21, 0,15,30.00,45.00,WinterDesignDay
8,265116828.53879133
2,1, 1,21, 0,15,45.00,60.00,WinterDesignDay
8,265633971.42675817
2,1, 1,21, 0,16, 0.00,15.00,WinterDesignDay
8,265875728.19922554