Program Version,EnergyPlus, Version 23.2.0-7636e6b3e9, YMD=2024.01.24 10:59
1,5,Environment Title[],Latitude[deg],Longitude[deg],Time Zone[],Elevation[m]
2,8,Day of Simulation[],Month[],Day of Month[],DST Indicator[1=yes 0=no],Hour[],StartMinute[],EndMinute[],DayType
3,5,Cumulative Day of Simulation[],Month[],Day of Month[],DST Indicator[1=yes 0=no],DayType  ! When Daily Report Variables Requested
4,2,Cumulative Days of Simulation[],Month[]  ! When Monthly Report Variables Requested
5,1,Cumulative Days of Simulation[] ! When Run Period Report Variables Requested
6,1,Calendar Year of Simulation[] ! When Annual Report Variables Requested
8,1,Electricity:Facility [J] !TimeStep
End of Data Dictionary
1,JACKSONVILLE INTNL ANN CLG .4% CONDNS DB=>MWB 1 HVAC Sizing Pass 1,  30.49, -81.69,  -5.00,  10.00
2,1, 7,21, 0, 1, 0.00,15.00,SummerDesignDay
8,204153966.51849377
2,1, 7,21, 0, 1,15.00,30.00,SummerDesignDay
8,203039635.4088752
2,1, 7,21, 0, 1,30.00,45.00,SummerDesignDay
8,201943978.43241367
2,1, 7,21, 0, 1,45.00,60.00,SummerDesignDay
8,200867311.07368848
2,1, 7,21, 0, 2, 0.00,15.00,SummerDesignDay
8,199952419.19589928
2,1, 7,21, 0, 2,15.00,30.00,SummerDesignDay
8,199056266.8570392
2,1, 7,21, 0, 2,30.00,45.00,SummerDesignDay
8,198173966.61427486
2,1, 7,21, 0, 2,45.00,60.00,SummerDesignDay
8,197303373.97249925
2,1, 7,21, 0, 3, 0.00,15.00,SummerDesignDay
8,196512638.35189298
2,1, 7,21, 0, 3,15.00,30.00,SummerDesignDay
8,195733404.2200782
2,1, 7,21, 0, 3,30.00,45.00,SummerDesignDay
8,194963861.4368952
2,1, 7,21, 0, 3,45.00,60.00,SummerDesignDay
8,194203299.23874184
2,1, 7,21, 0, 4, 0.00,15.00,SummerDesignDay
8,193451226.56207752
2,1, 7,21, 0, 4,15.00,30.00,SummerDesignDay
8,192707344.37706998
2,1, 7,21, 0, 4,30.00,45.00,SummerDesignDay
8,191971499.63568902
2,1, 7,21, 0, 4,45.00,60.00,SummerDesignDay
8,191243633.39760676
2,1, 7,21, 0, 5, 0.00,15.00,SummerDesignDay
8,190589517.24001306
2,1, 7,21, 0, 5,15.00,30.00,SummerDesignDay
8,189945862.3732361
2,1, 7,21, 0, 5,30.00,45.00,SummerDesignDay
8,189310547.0753202
2,1, 7,21, 0, 5,45.00,60.00,SummerDesignDay
8,189048020.07666764
2,1, 7,21, 0, 6, 0.00,15.00,SummerDesignDay
8,189077947.78977585
2,1, 7,21, 0, 6,15.00,30.00,SummerDesignDay
8,188212170.0558011
2,1, 7,21, 0, 6,30.00,45.00,SummerDesignDay
8,184983887.32021508
2,1, 7,21, 0, 6,45.00,60.00,SummerDesignDay
8,187327970.2347901
2,1, 7,21, 0, 7, 0.00,15.00,SummerDesignDay
8,195259681.95057324
2,1, 7,21, 0, 7,15.00,30.00,SummerDesignDay
8,199365723.8035352
2,1, 7,21, 0, 7,30.00,45.00,SummerDesignDay
8,204160733.72006518
2,1, 7,21, 0, 7,45.00,60.00,SummerDesignDay
8,207909286.139179
2,1, 7,21, 0, 8, 0.00,15.00,SummerDesignDay
8,212141282.81001806
2,1, 7,21, 0, 8,15.00,30.00,SummerDesignDay
8,216126790.17122617
2,1, 7,21, 0, 8,30.00,45.00,SummerDesignDay
8,219874299.3425603
2,1, 7,21, 0, 8,45.00,60.00,SummerDesignDay
8,223389745.67337915
2,1, 7,21, 0, 9, 0.00,15.00,SummerDesignDay
8,226437804.0367478
2,1, 7,21, 0, 9,15.00,30.00,SummerDesignDay
8,229345520.3883583
2,1, 7,21, 0, 9,30.00,45.00,SummerDesignDay
8,232681045.82398435
2,1, 7,21, 0, 9,45.00,60.00,SummerDesignDay
8,235978627.71554777
2,1, 7,21, 0,10, 0.00,15.00,SummerDesignDay
8,238351433.54894257
2,1, 7,21, 0,10,15.00,30.00,SummerDesignDay
8,240466480.6168686
2,1, 7,21, 0,10,30.00,45.00,SummerDesignDay
8,242320301.9342235
2,1, 7,21, 0,10,45.00,60.00,SummerDesignDay
8,243918722.48419297
2,1, 7,21, 0,11, 0.00,15.00,SummerDesignDay
8,245062887.56206572
2,1, 7,21, 0,11,15.00,30.00,SummerDesignDay
8,245191513.27463967
2,1, 7,21, 0,11,30.00,45.00,SummerDesignDay
8,245719952.14799482
2,1, 7,21, 0,11,45.00,60.00,SummerDesignDay
8,246728718.7773307
2,1, 7,21, 0,12, 0.00,15.00,SummerDesignDay
8,246941587.9063136
2,1, 7,21, 0,12,15.00,30.00,SummerDesignDay
8,246849390.30671838
2,1, 7,21, 0,12,30.00,45.00,SummerDesignDay
8,246848834.1955056
2,1, 7,21, 0,12,45.00,60.00,SummerDesignDay
8,247123835.52591425
2,1, 7,21, 0,13, 0.00,15.00,SummerDesignDay
8,247538207.30160123
2,1, 7,21, 0,13,15.00,30.00,SummerDesignDay
8,248275199.07940003
2,1, 7,21, 0,13,30.00,45.00,SummerDesignDay
8,248746275.26763475
2,1, 7,21, 0,13,45.00,60.00,SummerDesignDay
8,250033951.6433811
2,1, 7,21, 0,14, 0.00,15.00,SummerDesignDay
8,252057232.92292005
2,1, 7,21, 0,14,15.00,30.00,SummerDesignDay
8,254368322.12927458
2,1, 7,21, 0,14,30.00,45.00,SummerDesignDay
8,256805263.87770048
2,1, 7,21, 0,14,45.00,60.00,SummerDesignDay
8,259538898.73367652
2,1, 7,21, 0,15, 0.00,15.00,SummerDesignDay
8,261908539.04073077
2,1, 7,21, 0,15,15.00,30.00,SummerDesignDay
8,264367036.35654393
2,1, 7,21, 0,15,30.00,45.00,SummerDesignDay
8,266845598.29986274
2,1, 7,21, 0,15,45.00,60.00,SummerDesignDay
8,268718951.0735281
2,1, 7,21, 0,16, 0.00,15.00,SummerDesignDay
8,270388368.0331435
2,1, 7,21, 0,16,15.00,30.00,SummerDesignDay
8,272448212.4584883
2,1, 7,21, 0,16,30.00,45.00,SummerDesignDay
8,273905152.7827845
2,1, 7,21, 0,16,45.00,60.00,SummerDesignDay
8,274926113.4967443
2,1, 7,21, 0,17, 0.00,15.00,SummerDesignDay
8,275427388.6246601
2,1, 7,21, 0,17,15.00,30.00,SummerDesignDay
8,275570612.128889
2,1, 7,21, 0,17,30.00,45.00,SummerDesignDay
8,275407787.2316652
2,1, 7,21, 0,17,45.00,60.00,SummerDesignDay
8,274721534.31093895
2,1, 7,21, 0,18, 0.00,15.00,SummerDesignDay
8,272967236.1079798
2,1, 7,21, 0,18,15.00,30.00,SummerDesignDay
8,271358581.6158478
2,1, 7,21, 0,18,30.00,45.00,SummerDesignDay
8,270005543.7698404
2,1, 7,21, 0,18,45.00,60.00,SummerDesignDay
8,267375771.71339265
2,1, 7,21, 0,19, 0.00,15.00,SummerDesignDay
8,263584895.4446927
2,1, 7,21, 0,19,15.00,30.00,SummerDesignDay
8,258880499.04166526
2,1, 7,21, 0,19,30.00,45.00,SummerDesignDay
8,253760155.02166247
2,1, 7,21, 0,19,45.00,60.00,SummerDesignDay
8,248050532.34868822
2,1, 7,21, 0,20, 0.00,15.00,SummerDesignDay
8,240903567.6430619
2,1, 7,21, 0,20,15.00,30.00,SummerDesignDay
8,238928139.93588614
2,1, 7,21, 0,20,30.00,45.00,SummerDesignDay
8,236393070.8542442
2,1, 7,21, 0,20,45.00,60.00,SummerDesignDay
8,234297930.90962413
2,1, 7,21, 0,21, 0.00,15.00,SummerDesignDay
8,232352253.0148757
2,1, 7,21, 0,21,15.00,30.00,SummerDesignDay
8,230602147.85065573
2,1, 7,21, 0,21,30.00,45.00,SummerDesignDay
8,228982112.85859793
2,1, 7,21, 0,21,45.00,60.00,SummerDesignDay
8,227445792.79931667
2,1, 7,21, 0,22, 0.00,15.00,SummerDesignDay
8,225469822.7434029
2,1, 7,21, 0,22,15.00,30.00,SummerDesignDay
8,223762857.5863712
2,1, 7,21, 0,22,30.00,45.00,SummerDesignDay
8,222608978.8551799
2,1, 7,21, 0,22,45.00,60.00,SummerDesignDay
8,221687398.65026793
2,1, 7,21, 0,23, 0.00,15.00,SummerDesignDay
8,216181349.54070735
2,1, 7,21, 0,23,15.00,30.00,SummerDesignDay
8,214492199.23789334
2,1, 7,21, 0,23,30.00,45.00,SummerDesignDay
8,212861358.2200824
2,1, 7,21, 0,23,45.00,60.00,SummerDesignDay
8,211366578.15407938
2,1, 7,21, 0,24, 0.00,15.00,SummerDesignDay
8,209521699.63868093
2,1, 7,21, 0,24,15.00,30.00,SummerDesignDay
8,207952474.46568677
2,1, 7,21, 0,24,30.00,45.00,SummerDesignDay
8,206954170.97527418
2,1, 7,21, 0,24,45.00,60.00,SummerDesignDay
8,206260930.5207963
1,JACKSONVILLE INTNL ANN CLG .4% CONDNS WB=>MDB 1 HVAC Sizing Pass 1,  30.49, -81.69,  -5.00,  10.00
2,1, 7,21, 0, 1, 0.00,15.00,SummerDesignDay
8,191593477.97062713
2,1, 7,21, 0, 1,15.00,30.00,SummerDesignDay
8,190418340.38108915
2,1, 7,21, 0, 1,30.00,45.00,SummerDesignDay
8,189266596.77442548
2,1, 7,21, 0, 1,45.00,60.00,SummerDesignDay
8,188138873.0031985
2,1, 7,21, 0, 2, 0.00,15.00,SummerDesignDay
8,187188034.4416355
2,1, 7,21, 0, 2,15.00,30.00,SummerDesignDay
8,186262628.55694795
2,1, 7,21, 0, 2,30.00,45.00,SummerDesignDay
8,185357904.59456456
2,1, 7,21, 0, 2,45.00,60.00,SummerDesignDay
8,184469351.76349577
2,1, 7,21, 0, 3, 0.00,15.00,SummerDesignDay
8,183666620.6704642
2,1, 7,21, 0, 3,15.00,30.00,SummerDesignDay
8,182878201.50406045
2,1, 7,21, 0, 3,30.00,45.00,SummerDesignDay
8,182101403.9635061
2,1, 7,21, 0, 3,45.00,60.00,SummerDesignDay
8,181335005.30948198
2,1, 7,21, 0, 4, 0.00,15.00,SummerDesignDay
8,180577788.3486457
2,1, 7,21, 0, 4,15.00,30.00,SummerDesignDay
8,179828910.33008662
2,1, 7,21, 0, 4,30.00,45.00,SummerDesignDay
8,179087404.3441121
2,1, 7,21, 0, 4,45.00,60.00,SummerDesignDay
8,178352982.12557337
2,1, 7,21, 0, 5, 0.00,15.00,SummerDesignDay
8,177697815.76510218
2,1, 7,21, 0, 5,15.00,30.00,SummerDesignDay
8,177054185.47186607
2,1, 7,21, 0, 5,30.00,45.00,SummerDesignDay
8,176421426.82874054
2,1, 7,21, 0, 5,45.00,60.00,SummerDesignDay
8,176163517.60672382
2,1, 7,21, 0, 6, 0.00,15.00,SummerDesignDay
8,176224649.34660596
2,1, 7,21, 0, 6,15.00,30.00,SummerDesignDay
8,175396304.64177
2,1, 7,21, 0, 6,30.00,45.00,SummerDesignDay
8,172061846.86956197
2,1, 7,21, 0, 6,45.00,60.00,SummerDesignDay
8,174116183.77643925
2,1, 7,21, 0, 7, 0.00,15.00,SummerDesignDay
8,181530673.7180442
2,1, 7,21, 0, 7,15.00,30.00,SummerDesignDay
8,185351697.05920428
2,1, 7,21, 0, 7,30.00,45.00,SummerDesignDay
8,189876342.5061001
2,1, 7,21, 0, 7,45.00,60.00,SummerDesignDay
8,193426698.15402296
2,1, 7,21, 0, 8, 0.00,15.00,SummerDesignDay
8,197591794.1542301
2,1, 7,21, 0, 8,15.00,30.00,SummerDesignDay
8,201598078.43525603
2,1, 7,21, 0, 8,30.00,45.00,SummerDesignDay
8,205458170.91233212
2,1, 7,21, 0, 8,45.00,60.00,SummerDesignDay
8,209168146.36569747
2,1, 7,21, 0, 9, 0.00,15.00,SummerDesignDay
8,212471577.13342053
2,1, 7,21, 0, 9,15.00,30.00,SummerDesignDay
8,215333687.75241464
2,1, 7,21, 0, 9,30.00,45.00,SummerDesignDay
8,218575827.9955222
2,1, 7,21, 0, 9,45.00,60.00,SummerDesignDay
8,221721896.23936206
2,1, 7,21, 0,10, 0.00,15.00,SummerDesignDay
8,223922369.93438327
2,1, 7,21, 0,10,15.00,30.00,SummerDesignDay
8,225855517.60058945
2,1, 7,21, 0,10,30.00,45.00,SummerDesignDay
8,227533103.20653796
2,1, 7,21, 0,10,45.00,60.00,SummerDesignDay
8,228967176.28672403
2,1, 7,21, 0,11, 0.00,15.00,SummerDesignDay
8,229977396.9872166
2,1, 7,21, 0,11,15.00,30.00,SummerDesignDay
8,229996794.09403858
2,1, 7,21, 0,11,30.00,45.00,SummerDesignDay
8,230431358.8724761
2,1, 7,21, 0,11,45.00,60.00,SummerDesignDay
8,231360322.1710796
2,1, 7,21, 0,12, 0.00,15.00,SummerDesignDay
8,231543396.43944257
2,1, 7,21, 0,12,15.00,30.00,SummerDesignDay
8,231431645.38123024
2,1, 7,21, 0,12,30.00,45.00,SummerDesignDay
8,231411635.8376545
2,1, 7,21, 0,12,45.00,60.00,SummerDesignDay
8,231652002.6290527
2,1, 7,21, 0,13, 0.00,15.00,SummerDesignDay
8,232028419.71634203
2,1, 7,21, 0,13,15.00,30.00,SummerDesignDay
8,232708869.71459797
2,1, 7,21, 0,13,30.00,45.00,SummerDesignDay
8,233098389.00505033
2,1, 7,21, 0,13,45.00,60.00,SummerDesignDay
8,234276549.21255696
2,1, 7,21, 0,14, 0.00,15.00,SummerDesignDay
8,236183391.8586419
2,1, 7,21, 0,14,15.00,30.00,SummerDesignDay
8,238346107.73063034
2,1, 7,21, 0,14,30.00,45.00,SummerDesignDay
8,240612059.6427211
2,1, 7,21, 0,14,45.00,60.00,SummerDesignDay
8,243144147.61268675
2,1, 7,21, 0,15, 0.00,15.00,SummerDesignDay
8,245330777.45264706
2,1, 7,21, 0,15,15.00,30.00,SummerDesignDay
8,247601882.21532556
2,1, 7,21, 0,15,30.00,45.00,SummerDesignDay
8,249891943.14355072
2,1, 7,21, 0,15,45.00,60.00,SummerDesignDay
8,251571582.0498308
2,1, 7,21, 0,16, 0.00,15.00,SummerDesignDay
8,253106808.60377216
2,1, 7,21, 0,16,15.00,30.00,SummerDesignDay
8,255047676.40663698
2,1, 7,21, 0,16,30.00,45.00,SummerDesignDay
8,256405853.38581306
2,1, 7,21, 0,16,45.00,60.00,SummerDesignDay
8,257347581.8503927
2,1, 7,21, 0,17, 0.00,15.00,SummerDesignDay
8,257806854.35197112
2,1, 7,21, 0,17,15.00,30.00,SummerDesignDay
8,257934342.82015392
2,1, 7,21, 0,17,30.00,45.00,SummerDesignDay
8,257776524.4948155
2,1, 7,21, 0,17,45.00,60.00,SummerDesignDay
8,257128149.23679465
2,1, 7,21, 0,18, 0.00,15.00,SummerDesignDay
8,255452885.49732205
2,1, 7,21, 0,18,15.00,30.00,SummerDesignDay
8,253958991.82807815
2,1, 7,21, 0,18,30.00,45.00,SummerDesignDay
8,252759734.41658047
2,1, 7,21, 0,18,45.00,60.00,SummerDesignDay
8,250327650.96543998
2,1, 7,21, 0,19, 0.00,15.00,SummerDesignDay
8,246823867.29533222
2,1, 7,21, 0,19,15.00,30.00,SummerDesignDay
8,242477940.76500672
2,1, 7,21, 0,19,30.00,45.00,SummerDesignDay
8,237761923.15403572
2,1, 7,21, 0,19,45.00,60.00,SummerDesignDay
8,232515777.74060202
2,1, 7,21, 0,20, 0.00,15.00,SummerDesignDay
8,225904146.05778974
2,1, 7,21, 0,20,15.00,30.00,SummerDesignDay
8,224420365.95731193
2,1, 7,21, 0,20,30.00,45.00,SummerDesignDay
8,222206109.0309654
2,1, 7,21, 0,20,45.00,60.00,SummerDesignDay
8,220385211.3560884
2,1, 7,21, 0,21, 0.00,15.00,SummerDesignDay
8,218659872.48637345
2,1, 7,21, 0,21,15.00,30.00,SummerDesignDay
8,217101603.91015375
2,1, 7,21, 0,21,30.00,45.00,SummerDesignDay
8,215654722.98703894
2,1, 7,21, 0,21,45.00,60.00,SummerDesignDay
8,214279974.9928742
2,1, 7,21, 0,22, 0.00,15.00,SummerDesignDay
8,212454153.03500628
2,1, 7,21, 0,22,15.00,30.00,SummerDesignDay
8,210897692.7054316
2,1, 7,21, 0,22,30.00,45.00,SummerDesignDay
8,209891303.26772097
2,1, 7,21, 0,22,45.00,60.00,SummerDesignDay
8,209114885.5285736
2,1, 7,21, 0,23, 0.00,15.00,SummerDesignDay
8,203880287.42504954
2,1, 7,21, 0,23,15.00,30.00,SummerDesignDay
8,202240565.45616677
2,1, 7,21, 0,23,30.00,45.00,SummerDesignDay
8,200641164.67058206
2,1, 7,21, 0,23,45.00,60.00,SummerDesignDay
8,199130744.1186819
2,1, 7,21, 0,24, 0.00,15.00,SummerDesignDay
8,197236288.8170631
2,1, 7,21, 0,24,15.00,30.00,SummerDesignDay
8,195600479.50661904
2,1, 7,21, 0,24,30.00,45.00,SummerDesignDay
8,194528662.532566
2,1, 7,21, 0,24,45.00,60.00,SummerDesignDay
8,193759105.37713504
1,JACKSONVILLE INTNL ANN CLG 1% CONDNS DB=>MWB 1 HVAC Sizing Pass 1,  30.49, -81.69,  -5.00,  10.00
2,1, 7,21, 0, 1, 0.00,15.00,SummerDesignDay
8,198560495.7384654
2,1, 7,21, 0, 1,15.00,30.00,SummerDesignDay
8,197495960.52987546
2,1, 7,21, 0, 1,30.00,45.00,SummerDesignDay
8,196449311.8045517
2,1, 7,21, 0, 1,45.00,60.00,SummerDesignDay
8,195421554.65598693
2,1, 7,21, 0, 2, 0.00,15.00,SummerDesignDay
8,194546413.037389
2,1, 7,21, 0, 2,15.00,30.00,SummerDesignDay
8,193689215.05350935
2,1, 7,21, 0, 2,30.00,45.00,SummerDesignDay
8,192845319.00804928
2,1, 7,21, 0, 2,45.00,60.00,SummerDesignDay
8,192012746.1201305
2,1, 7,21, 0, 3, 0.00,15.00,SummerDesignDay
8,191255618.07006297
2,1, 7,21, 0, 3,15.00,30.00,SummerDesignDay
8,190509565.23643655
2,1, 7,21, 0, 3,30.00,45.00,SummerDesignDay
8,189773692.0621572
2,1, 7,21, 0, 3,45.00,60.00,SummerDesignDay
8,189045720.07312602
2,1, 7,21, 0, 4, 0.00,15.00,SummerDesignDay
8,188325439.22600347
2,1, 7,21, 0, 4,15.00,30.00,SummerDesignDay
8,187612706.63895732
2,1, 7,21, 0, 4,30.00,45.00,SummerDesignDay
8,186908891.68430072
2,1, 7,21, 0, 4,45.00,60.00,SummerDesignDay
8,186212995.18581054
2,1, 7,21, 0, 5, 0.00,15.00,SummerDesignDay
8,185586479.25710326
2,1, 7,21, 0, 5,15.00,30.00,SummerDesignDay
8,184969568.11916006
2,1, 7,21, 0, 5,30.00,45.00,SummerDesignDay
8,184361020.4103984
2,1, 7,21, 0, 5,45.00,60.00,SummerDesignDay
8,184125672.49561718
2,1, 7,21, 0, 6, 0.00,15.00,SummerDesignDay
8,184166011.66302428
2,1, 7,21, 0, 6,15.00,30.00,SummerDesignDay
8,183308251.83912814
2,1, 7,21, 0, 6,30.00,45.00,SummerDesignDay
8,180029783.08690006
2,1, 7,21, 0, 6,45.00,60.00,SummerDesignDay
8,182267367.68493336
2,1, 7,21, 0, 7, 0.00,15.00,SummerDesignDay
8,189969144.34472552
2,1, 7,21, 0, 7,15.00,30.00,SummerDesignDay
8,193918657.06166485
2,1, 7,21, 0, 7,30.00,45.00,SummerDesignDay
8,198551723.4189199
2,1, 7,21, 0, 7,45.00,60.00,SummerDesignDay
8,202155942.3222024
2,1, 7,21, 0, 8, 0.00,15.00,SummerDesignDay
8,206220249.86367303
2,1, 7,21, 0, 8,15.00,30.00,SummerDesignDay
8,210047109.2589844
2,1, 7,21, 0, 8,30.00,45.00,SummerDesignDay
8,213643333.65598577
2,1, 7,21, 0, 8,45.00,60.00,SummerDesignDay
8,217014649.24302793
2,1, 7,21, 0, 9, 0.00,15.00,SummerDesignDay
8,219917974.46478096
2,1, 7,21, 0, 9,15.00,30.00,SummerDesignDay
8,222687831.00580287
2,1, 7,21, 0, 9,30.00,45.00,SummerDesignDay
8,225890894.57303396
2,1, 7,21, 0, 9,45.00,60.00,SummerDesignDay
8,229064103.5641019
2,1, 7,21, 0,10, 0.00,15.00,SummerDesignDay
8,231328689.91650632
2,1, 7,21, 0,10,15.00,30.00,SummerDesignDay
8,233343962.98920217
2,1, 7,21, 0,10,30.00,45.00,SummerDesignDay
8,235106478.27854773
2,1, 7,21, 0,10,45.00,60.00,SummerDesignDay
8,236621797.21954927
2,1, 7,21, 0,11, 0.00,15.00,SummerDesignDay
8,237699397.49339607
2,1, 7,21, 0,11,15.00,30.00,SummerDesignDay
8,237772787.42085692
2,1, 7,21, 0,11,30.00,45.00,SummerDesignDay
8,238251763.81822336
2,1, 7,21, 0,11,45.00,60.00,SummerDesignDay
8,239216963.9616692
2,1, 7,21, 0,12, 0.00,15.00,SummerDesignDay
8,239411615.9490119
2,1, 7,21, 0,12,15.00,30.00,SummerDesignDay
8,239304631.43056172
2,1, 7,21, 0,12,30.00,45.00,SummerDesignDay
8,239286864.28801176
2,1, 7,21, 0,12,45.00,60.00,SummerDesignDay
8,239537215.0858801
2,1, 7,21, 0,13, 0.00,15.00,SummerDesignDay
8,239924995.1435527
2,1, 7,21, 0,13,15.00,30.00,SummerDesignDay
8,240628068.9125606
2,1, 7,21, 0,13,30.00,45.00,SummerDesignDay
8,241055073.18648472
2,1, 7,21, 0,13,45.00,60.00,SummerDesignDay
8,242282498.29335612
2,1, 7,21, 0,14, 0.00,15.00,SummerDesignDay
8,244249024.42866677
2,1, 7,21, 0,14,15.00,30.00,SummerDesignDay
8,246488741.22157872
2,1, 7,21, 0,14,30.00,45.00,SummerDesignDay
8,248843218.85722977
2,1, 7,21, 0,14,45.00,60.00,SummerDesignDay
8,251485884.8899233
2,1, 7,21, 0,15, 0.00,15.00,SummerDesignDay
8,253778051.61957726
2,1, 7,21, 0,15,15.00,30.00,SummerDesignDay
8,256158206.5868806
2,1, 7,21, 0,15,30.00,45.00,SummerDesignDay
8,258559039.9294714
2,1, 7,21, 0,15,45.00,60.00,SummerDesignDay
8,260352000.7298396
2,1, 7,21, 0,16, 0.00,15.00,SummerDesignDay
8,261975677.95544958
2,1, 7,21, 0,16,15.00,30.00,SummerDesignDay
8,263997511.8810547
2,1, 7,21, 0,16,30.00,45.00,SummerDesignDay
8,265424950.42214492
2,1, 7,21, 0,16,45.00,60.00,SummerDesignDay
8,266425416.7615625
2,1, 7,21, 0,17, 0.00,15.00,SummerDesignDay
8,266924575.0477084
2,1, 7,21, 0,17,15.00,30.00,SummerDesignDay
8,267077135.0400201
2,1, 7,21, 0,17,30.00,45.00,SummerDesignDay
8,266932063.0505517
2,1, 7,21, 0,17,45.00,60.00,SummerDesignDay
8,266277570.70280975
2,1, 7,21, 0,18, 0.00,15.00,SummerDesignDay
8,264573744.88991833
2,1, 7,21, 0,18,15.00,30.00,SummerDesignDay
8,263029959.26075992
2,1, 7,21, 0,18,30.00,45.00,SummerDesignDay
8,261756543.39482713
2,1, 7,21, 0,18,45.00,60.00,SummerDesignDay
8,259224054.60795757
2,1, 7,21, 0,19, 0.00,15.00,SummerDesignDay
8,255571285.74579406
2,1, 7,21, 0,19,15.00,30.00,SummerDesignDay
8,251033214.311904
2,1, 7,21, 0,19,30.00,45.00,SummerDesignDay
8,246094020.0559335
2,1, 7,21, 0,19,45.00,60.00,SummerDesignDay
8,240588773.5733284
2,1, 7,21, 0,20, 0.00,15.00,SummerDesignDay
8,233671367.04228947
2,1, 7,21, 0,20,15.00,30.00,SummerDesignDay
8,231896366.50456628
2,1, 7,21, 0,20,30.00,45.00,SummerDesignDay
8,229487381.77072653
2,1, 7,21, 0,20,45.00,60.00,SummerDesignDay
8,227497800.80929273
2,1, 7,21, 0,21, 0.00,15.00,SummerDesignDay
8,225636870.50615394
2,1, 7,21, 0,21,15.00,30.00,SummerDesignDay
8,223962817.11396915
2,1, 7,21, 0,21,30.00,45.00,SummerDesignDay
8,222413329.98110583
2,1, 7,21, 0,21,45.00,60.00,SummerDesignDay
8,220944284.0926332
2,1, 7,21, 0,22, 0.00,15.00,SummerDesignDay
8,219033445.04197627
2,1, 7,21, 0,22,15.00,30.00,SummerDesignDay
8,217390476.85882622
2,1, 7,21, 0,22,30.00,45.00,SummerDesignDay
8,216299818.23279184
2,1, 7,21, 0,22,45.00,60.00,SummerDesignDay
8,215441136.8434791
2,1, 7,21, 0,23, 0.00,15.00,SummerDesignDay
8,210079385.57047394
2,1, 7,21, 0,23,15.00,30.00,SummerDesignDay
8,208472457.89809564
2,1, 7,21, 0,23,30.00,45.00,SummerDesignDay
8,206921347.5319856
2,1, 7,21, 0,23,45.00,60.00,SummerDesignDay
8,205495018.92157388
2,1, 7,21, 0,24, 0.00,15.00,SummerDesignDay
8,203710305.01367489
2,1, 7,21, 0,24,15.00,30.00,SummerDesignDay
8,202197239.00158012
2,1, 7,21, 0,24,30.00,45.00,SummerDesignDay
8,201253425.0322481
2,1, 7,21, 0,24,45.00,60.00,SummerDesignDay
8,200613776.02648607
1,JACKSONVILLE INTNL ANN CLG 2% CONDNS DP=>MDB 1 HVAC Sizing Pass 1,  30.49, -81.69,  -5.00,  10.00
2,1, 7,21, 0, 1, 0.00,15.00,SummerDesignDay
8,168142353.54676676
2,1, 7,21, 0, 1,15.00,30.00,SummerDesignDay
8,167194137.41142562
2,1, 7,21, 0, 1,30.00,45.00,SummerDesignDay
8,166263402.073612
2,1, 7,21, 0, 1,45.00,60.00,SummerDesignDay
8,165356718.2113329
2,1, 7,21, 0, 2, 0.00,15.00,SummerDesignDay
8,164588338.48349702
2,1, 7,21, 0, 2,15.00,30.00,SummerDesignDay
8,163852935.94813904
2,1, 7,21, 0, 2,30.00,45.00,SummerDesignDay
8,163148753.60551056
2,1, 7,21, 0, 2,45.00,60.00,SummerDesignDay
8,162468307.8989282
2,1, 7,21, 0, 3, 0.00,15.00,SummerDesignDay
8,161858988.05314592
2,1, 7,21, 0, 3,15.00,30.00,SummerDesignDay
8,161264933.03282255
2,1, 7,21, 0, 3,30.00,45.00,SummerDesignDay
8,160681890.07492334
2,1, 7,21, 0, 3,45.00,60.00,SummerDesignDay
8,160106527.49254325
2,1, 7,21, 0, 4, 0.00,15.00,SummerDesignDay
8,159536885.098511
2,1, 7,21, 0, 4,15.00,30.00,SummerDesignDay
8,158972844.2056153
2,1, 7,21, 0, 4,30.00,45.00,SummerDesignDay
8,158412713.83565807
2,1, 7,21, 0, 4,45.00,60.00,SummerDesignDay
8,157859420.71233636
2,1, 7,21, 0, 5, 0.00,15.00,SummerDesignDay
8,157362549.52453065
2,1, 7,21, 0, 5,15.00,30.00,SummerDesignDay
8,156873594.12047854
2,1, 7,21, 0, 5,30.00,45.00,SummerDesignDay
8,156391844.57597098
2,1, 7,21, 0, 5,45.00,60.00,SummerDesignDay
8,156282311.5993197
2,1, 7,21, 0, 6, 0.00,15.00,SummerDesignDay
8,156407927.22588995
2,1, 7,21, 0, 6,15.00,30.00,SummerDesignDay
8,155640156.5500092
2,1, 7,21, 0, 6,30.00,45.00,SummerDesignDay
8,152297227.08273092
2,1, 7,21, 0, 6,45.00,60.00,SummerDesignDay
8,153785651.32474133
2,1, 7,21, 0, 7, 0.00,15.00,SummerDesignDay
8,159369217.4320661
2,1, 7,21, 0, 7,15.00,30.00,SummerDesignDay
8,162436701.22772375
2,1, 7,21, 0, 7,30.00,45.00,SummerDesignDay
8,166300705.33118257
2,1, 7,21, 0, 7,45.00,60.00,SummerDesignDay
8,169251041.61706218
2,1, 7,21, 0, 8, 0.00,15.00,SummerDesignDay
8,172634259.5762998
2,1, 7,21, 0, 8,15.00,30.00,SummerDesignDay
8,175859854.53827432
2,1, 7,21, 0, 8,30.00,45.00,SummerDesignDay
8,178928189.80304006
2,1, 7,21, 0, 8,45.00,60.00,SummerDesignDay
8,181860563.0116111
2,1, 7,21, 0, 9, 0.00,15.00,SummerDesignDay
8,184393019.49099863
2,1, 7,21, 0, 9,15.00,30.00,SummerDesignDay
8,186875562.09703866
2,1, 7,21, 0, 9,30.00,45.00,SummerDesignDay
8,189863015.27785888
2,1, 7,21, 0, 9,45.00,60.00,SummerDesignDay
8,192906701.3085359
2,1, 7,21, 0,10, 0.00,15.00,SummerDesignDay
8,195133906.5395128
2,1, 7,21, 0,10,15.00,30.00,SummerDesignDay
8,197178988.6992019
2,1, 7,21, 0,10,30.00,45.00,SummerDesignDay
8,199034998.8489976
2,1, 7,21, 0,10,45.00,60.00,SummerDesignDay
8,200706866.42985663
2,1, 7,21, 0,11, 0.00,15.00,SummerDesignDay
8,202010879.65023538
2,1, 7,21, 0,11,15.00,30.00,SummerDesignDay
8,202128657.77839655
2,1, 7,21, 0,11,30.00,45.00,SummerDesignDay
8,202576514.16209933
2,1, 7,21, 0,11,45.00,60.00,SummerDesignDay
8,203467390.172846
2,1, 7,21, 0,12, 0.00,15.00,SummerDesignDay
8,203662776.59701014
2,1, 7,21, 0,12,15.00,30.00,SummerDesignDay
8,203538847.35984552
2,1, 7,21, 0,12,30.00,45.00,SummerDesignDay
8,203481800.5602161
2,1, 7,21, 0,12,45.00,60.00,SummerDesignDay
8,203642593.34045443
2,1, 7,21, 0,13, 0.00,15.00,SummerDesignDay
8,203924989.50082275
2,1, 7,21, 0,13,15.00,30.00,SummerDesignDay
8,204469471.6013071
2,1, 7,21, 0,13,30.00,45.00,SummerDesignDay
8,204682191.44193727
2,1, 7,21, 0,13,45.00,60.00,SummerDesignDay
8,205639636.79550737
2,1, 7,21, 0,14, 0.00,15.00,SummerDesignDay
8,207329212.2728001
2,1, 7,21, 0,14,15.00,30.00,SummerDesignDay
8,209210690.08067763
2,1, 7,21, 0,14,30.00,45.00,SummerDesignDay
8,211142957.03514317
2,1, 7,21, 0,14,45.00,60.00,SummerDesignDay
8,213309692.00556114
2,1, 7,21, 0,15, 0.00,15.00,SummerDesignDay
8,215199835.66544107
2,1, 7,21, 0,15,15.00,30.00,SummerDesignDay
8,217166799.8224234
2,1, 7,21, 0,15,30.00,45.00,SummerDesignDay
8,219155480.75903735
2,1, 7,21, 0,15,45.00,60.00,SummerDesignDay
8,220523632.7008483
2,1, 7,21, 0,16, 0.00,15.00,SummerDesignDay
8,221888248.07068
2,1, 7,21, 0,16,15.00,30.00,SummerDesignDay
8,223691126.48576754
2,1, 7,21, 0,16,30.00,45.00,SummerDesignDay
8,224940379.37599114
2,1, 7,21, 0,16,45.00,60.00,SummerDesignDay
8,225807949.06078723
2,1, 7,21, 0,17, 0.00,15.00,SummerDesignDay
8,226269663.19139218
2,1, 7,21, 0,17,15.00,30.00,SummerDesignDay
8,226447540.94446075
2,1, 7,21, 0,17,30.00,45.00,SummerDesignDay
8,226379254.8553764
2,1, 7,21, 0,17,45.00,60.00,SummerDesignDay
8,225859548.329588
2,1, 7,21, 0,18, 0.00,15.00,SummerDesignDay
8,224402153.11347395
2,1, 7,21, 0,18,15.00,30.00,SummerDesignDay
8,223177839.23880166
2,1, 7,21, 0,18,30.00,45.00,SummerDesignDay
8,222304277.8598818
2,1, 7,21, 0,18,45.00,60.00,SummerDesignDay
8,220258586.26623702
2,1, 7,21, 0,19, 0.00,15.00,SummerDesignDay
8,217303736.32916978
2,1, 7,21, 0,19,15.00,30.00,SummerDesignDay
8,213618358.04594603
2,1, 7,21, 0,19,30.00,45.00,SummerDesignDay
8,209496933.10622492
2,1, 7,21, 0,19,45.00,60.00,SummerDesignDay
8,204748872.20695153
2,1, 7,21, 0,20, 0.00,15.00,SummerDesignDay
8,198782188.6040658
2,1, 7,21, 0,20,15.00,30.00,SummerDesignDay
8,197870302.45765787
2,1, 7,21, 0,20,30.00,45.00,SummerDesignDay
8,195835782.30748838
2,1, 7,21, 0,20,45.00,60.00,SummerDesignDay
8,194133697.31058365
2,1, 7,21, 0,21, 0.00,15.00,SummerDesignDay
8,192485733.94380936
2,1, 7,21, 0,21,15.00,30.00,SummerDesignDay
8,190979296.9679637
2,1, 7,21, 0,21,30.00,45.00,SummerDesignDay
8,189564238.4780382
2,1, 7,21, 0,21,45.00,60.00,SummerDesignDay
8,188211742.75831154
2,1, 7,21, 0,22, 0.00,15.00,SummerDesignDay
8,186403471.81700101
2,1, 7,21, 0,22,15.00,30.00,SummerDesignDay
8,184859380.74511495
2,1, 7,21, 0,22,30.00,45.00,SummerDesignDay
8,183866539.06460384
2,1, 7,21, 0,22,45.00,60.00,SummerDesignDay
8,183105802.29539874
2,1, 7,21, 0,23, 0.00,15.00,SummerDesignDay
8,178335598.6762181
2,1, 7,21, 0,23,15.00,30.00,SummerDesignDay
8,176962831.8386296
2,1, 7,21, 0,23,30.00,45.00,SummerDesignDay
8,175646026.2980512
2,1, 7,21, 0,23,45.00,60.00,SummerDesignDay
8,174409489.01517007
2,1, 7,21, 0,24, 0.00,15.00,SummerDesignDay
8,172778404.48627782
2,1, 7,21, 0,24,15.00,30.00,SummerDesignDay
8,171397368.51566905
2,1, 7,21, 0,24,30.00,45.00,SummerDesignDay
8,170579309.5543794
2,1, 7,21, 0,24,45.00,60.00,SummerDesignDay
8,170057118.28789812
1,JACKSONVILLE INTNL ANN HTG 99% CONDNS DB 1 HVAC Sizing Pass 1,  30.49, -81.69,  -5.00,  10.00
2,1, 1,21, 0, 1, 0.00,15.00,WinterDesignDay
8,235971905.9638551
2,1, 1,21, 0, 1,15.00,30.00,WinterDesignDay
8,235972181.83543637
2,1, 1,21, 0, 1,30.00,45.00,WinterDesignDay
8,235972453.44244763
2,1, 1,21, 0, 1,45.00,60.00,WinterDesignDay
8,235972720.853401
2,1, 1,21, 0, 2, 0.00,15.00,WinterDesignDay
8,235972984.135665
2,1, 1,21, 0, 2,15.00,30.00,WinterDesignDay
8,235973243.35548112
2,1, 1,21, 0, 2,30.00,45.00,WinterDesignDay
8,235973498.57798827
2,1, 1,21, 0, 2,45.00,60.00,WinterDesignDay
8,235973749.86723867
2,1, 1,21, 0, 3, 0.00,15.00,WinterDesignDay
8,235973997.2862156
2,1, 1,21, 0, 3,15.00,30.00,WinterDesignDay
8,235974240.8968558
2,1, 1,21, 0, 3,30.00,45.00,WinterDesignDay
8,235974480.7600644
2,1, 1,21, 0, 3,45.00,60.00,WinterDesignDay
8,235974716.93573412
2,1, 1,21, 0, 4, 0.00,15.00,WinterDesignDay
8,235974949.482762
2,1, 1,21, 0, 4,15.00,30.00,WinterDesignDay
8,235975178.45906806
2,1, 1,21, 0, 4,30.00,45.00,WinterDesignDay
8,235975403.92161018
2,1, 1,21, 0, 4,45.00,60.00,WinterDesignDay
8,235975625.92640215
2,1, 1,21, 0, 5, 0.00,15.00,WinterDesignDay
8,235975844.52852955
2,1, 1,21, 0, 5,15.00,30.00,WinterDesignDay
8,235976059.7821656
2,1, 1,21, 0, 5,30.00,45.00,WinterDesignDay
8,235976271.7405872
2,1, 1,21, 0, 5,45.00,60.00,WinterDesignDay
8,236341668.56809
2,1, 1,21, 0, 6, 0.00,15.00,WinterDesignDay
8,236735385.6914176
2,1, 1,21, 0, 6,15.00,30.00,WinterDesignDay
8,236214412.60357454
2,1, 1,21, 0, 6,30.00,45.00,WinterDesignDay
8,235977087.6571396
2,1, 1,21, 0, 6,45.00,60.00,WinterDesignDay
8,235977283.90832487
2,1, 1,21, 0, 7, 0.00,15.00,WinterDesignDay
8,235977688.4324209
2,1, 1,21, 0, 7,15.00,30.00,WinterDesignDay
8,236088833.54068795
2,1, 1,21, 0, 7,30.00,45.00,WinterDesignDay
8,236736765.86691397
2,1, 1,21, 0, 7,45.00,60.00,WinterDesignDay
8,236736950.4253505
2,1, 1,21, 0, 8, 0.00,15.00,WinterDesignDay
8,236737132.17529175
2,1, 1,21, 0, 8,15.00,30.00,WinterDesignDay
8,233244010.88659805
2,1, 1,21, 0, 8,30.00,45.00,WinterDesignDay
8,233244187.15194377
2,1, 1,21, 0, 8,45.00,60.00,WinterDesignDay
8,233244360.73974484
2,1, 1,21, 0, 9, 0.00,15.00,WinterDesignDay
8,233244531.69222748
2,1, 1,21, 0, 9,15.00,30.00,WinterDesignDay
8,232558782.45695266
2,1, 1,21, 0, 9,30.00,45.00,WinterDesignDay
8,232486166.14578032
2,1, 1,21, 0, 9,45.00,60.00,WinterDesignDay
8,233079636.49682596
2,1, 1,21, 0,10, 0.00,15.00,WinterDesignDay
8,233245189.96952796
2,1, 1,21, 0,10,15.00,30.00,WinterDesignDay
8,233245348.35500297
2,1, 1,21, 0,10,30.00,45.00,WinterDesignDay
8,233245504.34439158
2,1, 1,21, 0,10,45.00,60.00,WinterDesignDay
8,233245657.97531715
2,1, 1,21, 0,11, 0.00,15.00,WinterDesignDay
8,233245809.28478906
2,1, 1,21, 0,11,15.00,30.00,WinterDesignDay
8,233245958.30921316
2,1, 1,21, 0,11,30.00,45.00,WinterDesignDay
8,233152520.0222247
2,1, 1,21, 0,11,45.00,60.00,WinterDesignDay
8,232487549.9346734
2,1, 1,21, 0,12, 0.00,15.00,WinterDesignDay
8,232514334.79128444
2,1, 1,21, 0,12,15.00,30.00,WinterDesignDay
8,233246532.26400942
2,1, 1,21, 0,12,30.00,45.00,WinterDesignDay
8,233246670.38887808
2,1, 1,21, 0,12,45.00,60.00,WinterDesignDay
8,233246806.43502724
2,1, 1,21, 0,13, 0.00,15.00,WinterDesignDay
8,233246940.43491632
2,1, 1,21, 0,13,15.00,30.00,WinterDesignDay
8,233247072.42047766
2,1, 1,21, 0,13,30.00,45.00,WinterDesignDay
8,233247202.42312726
2,1, 1,21, 0,13,45.00,60.00,WinterDesignDay
8,233247330.47377202
2,1, 1,21, 0,14, 0.00,15.00,WinterDesignDay
8,233055127.39993122
2,1, 1,21, 0,14,15.00,30.00,WinterDesignDay
8,232488881.12926623
2,1, 1,21, 0,14,30.00,45.00,WinterDesignDay
8,232600357.072118
2,1, 1,21, 0,14,45.00,60.00,WinterDesignDay
8,233247823.75710323
2,1, 1,21, 0,15, 0.00,15.00,WinterDesignDay
8,233247942.494107
2,1, 1,21, 0,15,15.00,30.00,WinterDesignDay
8,233248059.45433018
2,1, 1,21, 0,15,30.00,45.00,WinterDesignDay
8,233248174.6653496
2,1, 1,21, 0,15,45.00,60.00,WinterDesignDay
8,233248288.15429735
2,1, 1,21, 0,16, 0.00,15.00,WinterDesignDay
8,233248399.94786865