Program Version,EnergyPlus, Version 23.2.0-7636e6b3e9, YMD=2024.01.24 11:27
1,5,Environment Title[],Latitude[deg],Longitude[deg],Time Zone[],Elevation[m]
2,8,Day of Simulation[],Month[],Day of Month[],DST Indicator[1=yes 0=no],Hour[],StartMinute[],EndMinute[],DayType
3,5,Cumulative Day of Simulation[],Month[],Day of Month[],DST Indicator[1=yes 0=no],DayType  ! When Daily Meters Requested
4,2,Cumulative Days of Simulation[],Month[]  ! When Monthly Meters Requested
5,1,Cumulative Days of Simulation[] ! When Run Period Meters Requested
6,1,Calendar Year of Simulation[] ! When Annual Meters Requested
17054,1,Heating:Electricity [J] !TimeStep
17029,1,Heating:NaturalGas [J] !TimeStep
16718,1,Cooling:Electricity [J] !TimeStep
174,1,InteriorLights:Electricity [J] !TimeStep
16616,1,ExteriorLights:Electricity [J] !TimeStep
4947,1,InteriorEquipment:Electricity [J] !TimeStep
16579,1,Fans:Electricity [J] !TimeStep
17124,1,Pumps:Electricity [J] !TimeStep
16917,1,HeatRejection:Electricity [J] !TimeStep
16942,1,HeatRejection:Water [m3] !TimeStep
17095,1,WaterSystems:Electricity [J] !TimeStep
16818,1,WaterSystems:Water [m3] !TimeStep
126,1,Electricity:Facility [J] !TimeStep
17005,1,NaturalGas:Facility [J] !TimeStep
16794,1,Water:Facility [m3] !TimeStep
8118,1,Elevators:InteriorEquipment:Electricity [J] !TimeStep
127,1,Electricity:Facility [J] !Hourly
17055,1,Heating:Electricity [J] !Hourly
175,1,InteriorLights:Electricity [J] !Hourly
16617,1,ExteriorLights:Electricity [J] !Hourly
4948,1,InteriorEquipment:Electricity [J] !Hourly
17096,1,WaterSystems:Electricity [J] !Hourly
17180,1,TOTALHVAC:ELECTRICITY [J] !Hourly
17192,1,COOLINGHVAC:ELECTRICITY [J] !Hourly
17010,11,NaturalGas:Facility [J] !RunPeriod [Value,Min,Month,Day,Hour,Minute,Max,Month,Day,Hour,Minute]
17034,11,Heating:NaturalGas [J] !RunPeriod [Value,Min,Month,Day,Hour,Minute,Max,Month,Day,Hour,Minute]
17208,11,TOTALHVAC:NATURALGAS [J] !RunPeriod [Value,Min,Month,Day,Hour,Minute,Max,Month,Day,Hour,Minute]
17007,7,NaturalGas:Facility [J] !Daily [Value,Min,Hour,Minute,Max,Hour,Minute]
128,7,Electricity:Facility [J] !Daily [Value,Min,Hour,Minute,Max,Hour,Minute]
End of Data Dictionary
1,MAXWELL AFB ANN CLG .4% CONDNS DB=>MWB 1 HVAC Sizing Pass 1,  32.38, -86.36,  -6.00,  52.00
2,1, 7,21, 0, 1, 0.00,60.00,SummerDesignDay
126,2443209777.7483377
174,433784438.26624376
4947,1240204499.9999971
8118,333666000.0
16579,138024765.0752352
16616,51095956.30357242
16718,427982705.31736344
16794,2.207937801021441
16818,0.0
16917,45272772.84289608
16942,2.207937801021441
17005,3842126.67023155
17029,3842126.67023155
17054,0.0
17095,0.0
17124,106844639.9430317
2,1, 7,21, 0, 1, 0.00,60.00,SummerDesignDay
127,2443209777.7483377
175,433784438.26624376
4948,1240204499.9999971
16617,51095956.30357242
17055,0.0
17096,0.0
17180,718124883.1785264
17192,473255478.16025954
2,1, 7,21, 0, 2, 0.00,60.00,SummerDesignDay
126,2439620059.1645665
174,433784438.26624376
4947,1240204499.9999971
8118,333666000.0
16579,137518727.3714398
16616,51095956.30357242
16718,424910174.62129724
16794,2.144898718151766
16818,0.0
16917,45335344.58074039
16942,2.144898718151766
17005,9554898.319832074
17029,9554898.319832074
17054,0.0
17095,0.0
17124,106770918.02127717
2,1, 7,21, 0, 2, 0.00,60.00,SummerDesignDay
127,2439620059.1645665
175,433784438.26624376
4948,1240204499.9999971
16617,51095956.30357242
17055,0.0
17096,0.0
17180,714535164.5947547
17192,470245519.20203763
2,1, 7,21, 0, 3, 0.00,60.00,SummerDesignDay
126,2500862485.516063
174,433784438.26624376
4947,1240204499.9999971
8118,333666000.0
16579,171521517.80935353
16616,51095956.30357242
16718,446126545.7209422
16794,2.2570282068936427
16818,0.0
16917,49679131.735974625
16942,2.2570282068936427
17005,22922357.672526266
17029,22922357.672526266
17054,0.0
17095,0.0
17124,108450395.67998023
2,1, 7,21, 0, 3, 0.00,60.00,SummerDesignDay
127,2500862485.516063
175,433784438.26624376
4948,1240204499.9999971
16617,51095956.30357242
17055,0.0
17096,0.0
17180,775777590.9462507
17192,495805677.4569168
2,1, 7,21, 0, 4, 0.00,60.00,SummerDesignDay
126,2487141027.9183774
174,433784438.26624376
4947,1240204499.9999971
8118,333666000.0
16579,166800169.65805745
16616,51095956.30357242
16718,438330343.4432357
16794,2.179798724408544
16818,0.0
16917,48889167.288205676
16942,2.179798724408544
17005,48248141.690648
17029,48248141.690648
17054,0.0
17095,0.0
17124,108036452.9590667
2,1, 7,21, 0, 4, 0.00,60.00,SummerDesignDay
127,2487141027.9183774
175,433784438.26624376
4948,1240204499.9999971
16617,51095956.30357242
17055,0.0
17096,0.0
17180,762056133.3485653
17192,487219510.7314414
2,1, 7,21, 0, 5, 0.00,60.00,SummerDesignDay
126,2491113927.469057
174,433784438.26624376
4947,1240204499.9999971
8118,333666000.0
16579,169939542.59595227
16616,51095956.30357242
16718,437591699.46908736
16794,2.1549225485169936
16818,0.0
16917,49133232.62004723
16942,2.1549225485169936
17005,76341118.25394139
17029,76341118.25394139
17054,0.0
17095,1274462.8185599914
17124,108090095.39559752
2,1, 7,21, 0, 5, 0.00,60.00,SummerDesignDay
127,2491113927.469057
175,433784438.26624376
4948,1240204499.9999971
16617,51095956.30357242
17055,0.0
17096,1274462.8185599914
17180,764754570.0806844
17192,486724932.0891346
2,1, 7,21, 0, 6, 0.00,60.00,SummerDesignDay
126,2445402156.314566
174,433784438.26624376
4947,1240204499.9999971
8118,333666000.0
16579,171734669.95831347
16616,0.0
16718,441915297.89316565
16794,2.1997357391354373
16818,0.0
16917,49439076.24922971
16942,2.1997357391354373
17005,52344749.809409186
17029,52344749.809409186
17054,0.0
17095,0.0
17124,108324173.9476172
2,1, 7,21, 0, 6, 0.00,60.00,SummerDesignDay
127,2445402156.314566
175,433784438.26624376
4948,1240204499.9999971
16617,0.0
17055,0.0
17096,0.0
17180,771413218.048326
17192,491354374.1423954
2,1, 7,21, 0, 7, 0.00,60.00,SummerDesignDay
126,2573224083.3056517
174,433784438.26624376
4947,1240204499.9999971
8118,333666000.0
16579,229088003.0259946
16616,0.0
16718,494498546.50775343
16794,2.603058970737832
16818,0.004960056634177679
16917,57460094.76994191
16942,2.5980989141036543
17005,12268753.078612085
17029,12268753.078612085
17054,0.0
17095,6090092.422045169
17124,112098408.31367745
2,1, 7,21, 0, 7, 0.00,60.00,SummerDesignDay
127,2573224083.3056517
175,433784438.26624376
4948,1240204499.9999971
16617,0.0
17055,0.0
17096,6090092.422045169
17180,893145052.6173675
17192,551958641.2776953
2,1, 7,21, 0, 8, 0.00,60.00,SummerDesignDay
126,2731894728.854564
174,433784438.26624376
4947,1240204499.9999971
8118,333666000.0
16579,307124241.22310734
16616,0.0
16718,562014062.0274436
16794,3.18480306254012
16818,0.01346301086419656
16917,65582656.37705408
16942,3.1713400516759234
17005,708760.0057661186
17029,708760.0057661186
17054,0.0
17095,5724669.643265231
17124,117460161.31745371
2,1, 7,21, 0, 8, 0.00,60.00,SummerDesignDay
127,2731894728.854564
175,433784438.26624376
4948,1240204499.9999971
16617,0.0
17055,0.0
17096,5724669.643265231
17180,1052181120.9450588
17192,627596718.4044977
2,1, 7,21, 0, 9, 0.00,60.00,SummerDesignDay
126,2853675530.8278947
174,433784438.26624376
4947,1240204499.9999971
8118,333666000.0
16579,367048689.8000091
16616,0.0
16718,614185312.6785371
16794,3.693717634811436
16818,0.0248002831708884
16917,69907422.67801
16942,3.6689173516405473
17005,0.0
17029,0.0
17054,0.0
17095,6565043.4147935035
17124,121980123.99030568
2,1, 7,21, 0, 9, 0.00,60.00,SummerDesignDay
127,2853675530.8278947
175,433784438.26624376
4948,1240204499.9999971
16617,0.0
17055,0.0
17096,6565043.4147935035
17180,1173121549.146862
17192,684092735.3565471
2,1, 7,21, 0,10, 0.00,60.00,SummerDesignDay
126,2894090966.5650206
174,433784438.26624376
4947,1240204499.9999971
8118,333666000.0
16579,382552821.65464145
16616,0.0
16718,639192579.5931562
16794,4.013192086110452
16818,0.02692602172839312
16917,69498334.14621699
16942,3.9862660643820593
17005,0.0
17029,0.0
17054,0.0
17095,5337207.492401562
17124,123521085.41236499
2,1, 7,21, 0,10, 0.00,60.00,SummerDesignDay
127,2894090966.5650206
175,433784438.26624376
4948,1240204499.9999971
16617,0.0
17055,0.0
17096,5337207.492401562
17180,1214764820.80638
17192,708690913.7393732
2,1, 7,21, 0,11, 0.00,60.00,SummerDesignDay
126,2853407986.108417
174,433784438.26624376
4947,1240204499.9999971
8118,333666000.0
16579,349239730.8072016
16616,0.0
16718,636547620.89441
16794,4.146559451383162
16818,0.027634601247561365
16917,65009495.80560474
16942,4.118924850135601
17005,0.0
17029,0.0
17054,0.0
17095,7063367.333065995
17124,121558833.00189506
2,1, 7,21, 0,11, 0.00,60.00,SummerDesignDay
127,2853407986.108417
175,433784438.26624376
4948,1240204499.9999971
16617,0.0
17055,0.0
17096,7063367.333065995
17180,1172355680.5091116
17192,701557116.7000147
2,1, 7,21, 0,12, 0.00,60.00,SummerDesignDay
126,2779359652.413084
174,433784438.26624376
4947,1240204499.9999971
8118,333666000.0
16579,302200679.93639433
16616,0.0
16718,617956032.7144171
16794,4.138509877839906
16818,0.03330323740090728
16917,59812465.8644937
16942,4.105206640438999
17005,0.0
17029,0.0
17054,0.0
17095,6875277.123233039
17124,118526258.508306
2,1, 7,21, 0,12, 0.00,60.00,SummerDesignDay
127,2779359652.413084
175,433784438.26624376
4948,1240204499.9999971
16617,0.0
17055,0.0
17096,6875277.123233039
17180,1098495437.023611
17192,677768498.5789108
2,1, 7,21, 0,13, 0.00,60.00,SummerDesignDay
126,2777614789.480304
174,433784438.26624376
4947,1240204499.9999971
8118,333666000.0
16579,293863366.5194173
16616,0.0
16718,625758312.9181254
16794,4.262425116742887
16818,0.04038903259258968
16917,59073754.472754136
16942,4.2220360841502975
17005,0.0
17029,0.0
17054,0.0
17095,6384633.006180534
17124,118545784.29758674
2,1, 7,21, 0,13, 0.00,60.00,SummerDesignDay
127,2777614789.480304
175,433784438.26624376
4948,1240204499.9999971
16617,0.0
17055,0.0
17096,6384633.006180534
17180,1097241218.2078836
17192,684832067.3908795
2,1, 7,21, 0,14, 0.00,60.00,SummerDesignDay
126,2893334308.2608047
174,433784438.26624376
4947,1240204499.9999971
8118,333666000.0
16579,356692251.10707307
16616,0.0
16718,669055388.1505988
16794,4.56046005308889
16818,0.038263294035084966
16917,64112782.38543246
16942,4.522196759053805
17005,0.0
17029,0.0
17054,0.0
17095,7457019.323457135
17124,122027929.0280044
2,1, 7,21, 0,14, 0.00,60.00,SummerDesignDay
127,2893334308.2608047
175,433784438.26624376
4948,1240204499.9999971
16617,0.0
17055,0.0
17096,7457019.323457135
17180,1211888350.671109
17192,733168170.5360312
2,1, 7,21, 0,15, 0.00,60.00,SummerDesignDay
126,2548904419.5551515
174,433784438.26624376
4947,1240204499.9999971
8118,333666000.0
16579,152121943.0405165
16616,0.0
16718,556126621.5605574
16794,3.8591621982740874
16818,0.024091703651720163
16917,48773040.763356276
16942,3.835070494622367
17005,0.0
17029,0.0
17054,0.0
17095,6725706.932235679
17124,111168168.9922456
2,1, 7,21, 0,15, 0.00,60.00,SummerDesignDay
127,2548904419.5551515
175,433784438.26624376
4948,1240204499.9999971
16617,0.0
17055,0.0
17096,6725706.932235679
17180,868189774.3566759
17192,604899662.3239137
2,1, 7,21, 0,16, 0.00,60.00,SummerDesignDay
126,2651917148.5796804
174,433784438.26624376
4947,1240204499.9999971
8118,333666000.0
16579,186920164.11531866
16616,0.0
16718,613039689.5434657
16794,4.165857467256613
16818,0.023383124132551922
16917,57639158.22282684
16942,4.142474343124061
17005,0.0
17029,0.0
17054,0.0
17095,5113831.029534286
17124,115215367.40229578
2,1, 7,21, 0,16, 0.00,60.00,SummerDesignDay
127,2651917148.5796804
175,433784438.26624376
4948,1240204499.9999971
16617,0.0
17055,0.0
17096,5113831.029534286
17180,972814379.2839069
17192,670678847.7662926
2,1, 7,21, 0,17, 0.00,60.00,SummerDesignDay
126,2716329464.0580482
174,433784438.26624376
4947,1240204499.9999971
8118,333666000.0
16579,216784973.11042085
16616,0.0
16718,637730747.3740879
16794,4.255054574659677
16818,0.03117749884340256
16917,63265350.642233476
16942,4.223877075816274
17005,0.0
17029,0.0
17054,0.0
17095,7031038.266918248
17124,117528416.39814845
2,1, 7,21, 0,17, 0.00,60.00,SummerDesignDay
127,2716329464.0580482
175,433784438.26624376
4948,1240204499.9999971
16617,0.0
17055,0.0
17096,7031038.266918248
17180,1035309487.5248907
17192,700996098.0163214
2,1, 7,21, 0,18, 0.00,60.00,SummerDesignDay
126,2693727607.404589
174,433784438.26624376
4947,1240204499.9999971
8118,333666000.0
16579,212077882.18963543
16616,0.0
16718,621210679.1031227
16794,4.057557538482469
16818,0.018423067498374242
16917,63364184.57716648
16942,4.039134470984095
17005,0.0
17029,0.0
17054,0.0
17095,6056576.182193879
17124,117029347.08623096
2,1, 7,21, 0,18, 0.00,60.00,SummerDesignDay
127,2693727607.404589
175,433784438.26624376
4948,1240204499.9999971
16617,0.0
17055,0.0
17096,6056576.182193879
17180,1013682092.9561555
17192,684574863.6802891
2,1, 7,21, 0,19, 0.00,60.00,SummerDesignDay
126,2630963524.528282
174,433784438.26624376
4947,1240204499.9999971
8118,333666000.0
16579,199262366.32349378
16616,0.0
16718,578027161.0096613
16794,3.6609721140798164
16818,0.01488016990253304
16917,60396517.3293107
16942,3.646091944177283
17005,0.0
17029,0.0
17054,0.0
17095,4653970.612551954
17124,114634570.98702484
2,1, 7,21, 0,19, 0.00,60.00,SummerDesignDay
127,2630963524.528282
175,433784438.26624376
4948,1240204499.9999971
16617,0.0
17055,0.0
17096,4653970.612551954
17180,952320615.6494906
17192,638423678.338972
2,1, 7,21, 0,20, 0.00,60.00,SummerDesignDay
126,2668975685.02533
174,433784438.26624376
4947,1240204499.9999971
8118,333666000.0
16579,210848722.67530394
16616,51095956.30357242
16718,554348388.9292188
16794,3.4012116831821957
16818,0.010628692787523599
16917,58980573.28551282
16942,3.3905829903946723
17005,0.0
17029,0.0
17054,0.0
17095,5863482.541325379
17124,113849623.02415691
2,1, 7,21, 0,20, 0.00,60.00,SummerDesignDay
127,2668975685.02533
175,433784438.26624376
4948,1240204499.9999971
16617,51095956.30357242
17055,0.0
17096,5863482.541325379
17180,938027307.9141924
17192,613328962.2147316
2,1, 7,21, 0,21, 0.00,60.00,SummerDesignDay
126,2695065946.138957
174,433784438.26624376
4947,1240204499.9999971
8118,333666000.0
16579,240186439.854901
16616,51095956.30357242
16718,549696053.7305615
16794,3.2845293164912497
16818,0.012045851825860081
16917,60231568.833485015
16942,3.2724834646653895
17005,0.0
17029,0.0
17054,0.0
17095,5339975.022552874
17124,114527014.12764522
2,1, 7,21, 0,21, 0.00,60.00,SummerDesignDay
127,2695065946.138957
175,433784438.26624376
4948,1240204499.9999971
16617,51095956.30357242
17055,0.0
17096,5339975.022552874
17180,964641076.5465927
17192,609927622.5640465
2,1, 7,21, 0,22, 0.00,60.00,SummerDesignDay
126,2630228614.325265
174,433784438.26624376
4947,1240204499.9999971
8118,333666000.0
16579,215473896.74211234
16616,51095956.30357242
16718,516406744.52012837
16794,2.9882475818959806
16818,0.0056686361533459205
16917,56641383.012388945
16942,2.9825789457426346
17005,0.0
17029,0.0
17054,0.0
17095,4239715.964767831
17124,112381979.51605497
2,1, 7,21, 0,22, 0.00,60.00,SummerDesignDay
127,2630228614.325265
175,433784438.26624376
4948,1240204499.9999971
16617,51095956.30357242
17055,0.0
17096,4239715.964767831
17180,900904003.7906847
17192,573048127.5325173
2,1, 7,21, 0,23, 0.00,60.00,SummerDesignDay
126,2567768842.600664
174,433784438.26624376
4947,1240204499.9999971
8118,333666000.0
16579,189419958.53821006
16616,51095956.30357242
16718,485175924.6501593
16794,2.7188128215755225
16818,0.0035428975958412007
16917,52725877.69407911
16942,2.7152699239796814
17005,0.0
17029,0.0
17054,0.0
17095,4992076.709729553
17124,110370110.43867435
2,1, 7,21, 0,23, 0.00,60.00,SummerDesignDay
127,2567768842.600664
175,433784438.26624376
4948,1240204499.9999971
16617,51095956.30357242
17055,0.0
17096,4992076.709729553
17180,837691871.3211229
17192,537901802.3442384
2,1, 7,21, 0,24, 0.00,60.00,SummerDesignDay
126,2542943675.409828
174,433784438.26624376
4947,1240204499.9999971
8118,333666000.0
16579,182992011.6884878
16616,51095956.30357242
16718,468721879.6935983
16794,2.5425347144472172
16818,0.0035428975958412007
16917,51245099.229288265
16942,2.538991816851376
17005,161343.58114799124
17029,161343.58114799124
17054,0.0
17095,5375803.766201888
17124,109523986.46244022
2,1, 7,21, 0,24, 0.00,60.00,SummerDesignDay
127,2542943675.409828
175,433784438.26624376
4948,1240204499.9999971
16617,51095956.30357242
17055,0.0
17096,5375803.766201888
17180,812482977.0738144
17192,519966978.92288655
3,1, 7,21, 0,SummerDesignDay
128,63510776407.57251,2439620059.1645665, 2,60,2894090966.5650206,10,60
17007,226392249.0821147,0.0, 9,60,76341118.25394139, 5,60
5,1
17010,226392249.0821147,0.0, 7,21, 9,60,76341118.25394139, 7,21, 5,60
17034,226392249.0821147,0.0, 7,21, 9,60,76341118.25394139, 7,21, 5,60
17208,226392249.0821147,0.0, 7,21, 9,60,76341118.25394139, 7,21, 5,60
1,MAXWELL AFB ANN CLG .4% CONDNS WB=>MDB 1 HVAC Sizing Pass 1,  32.38, -86.36,  -6.00,  52.00
2,1, 7,21, 0, 1, 0.00,60.00,SummerDesignDay
126,2473511518.882632
174,433784438.26624376
4947,1240204499.9999971
8118,333666000.0
16579,137101850.5663529
16616,51095956.30357242
16718,461672115.50816506
16794,1.4836378424524104
16818,0.0
16917,42180277.410039276
16942,1.4836378424524104
17005,42478680.23633997
17029,42478680.23633997
17054,0.0
17095,0.0
17124,107472380.82826272
2,1, 7,21, 0, 1, 0.00,60.00,SummerDesignDay
127,2473511518.882632
175,433784438.26624376
4948,1240204499.9999971
16617,51095956.30357242
17055,0.0
17096,0.0
17180,748426624.31282
17192,503852392.9182043
2,1, 7,21, 0, 2, 0.00,60.00,SummerDesignDay
126,2462215247.7090926
174,433784438.26624376
4947,1240204499.9999971
8118,333666000.0
16579,136608012.42182922
16616,51095956.30357242
16718,450534451.2266067
16794,1.4425995442997412
16818,0.0
16917,42732308.47577297
16942,1.4425995442997412
17005,86932938.70692402
17029,86932938.70692402
17054,0.0
17095,0.0
17124,107255581.01507258
2,1, 7,21, 0, 2, 0.00,60.00,SummerDesignDay
127,2462215247.7090926
175,433784438.26624376
4948,1240204499.9999971
16617,51095956.30357242
17055,0.0
17096,0.0
17180,737130353.1392815
17192,493266759.7023797
2,1, 7,21, 0, 3, 0.00,60.00,SummerDesignDay
126,2508108158.7183676
174,433784438.26624376
4947,1240204499.9999971
8118,333666000.0
16579,164829648.1778931
16616,51095956.30357242
16718,463078992.2039857
16794,1.52971208705836
16818,0.0
16917,46547843.18967295
16942,1.52971208705836
17005,123805651.77753347
17029,123805651.77753347
17054,0.0
17095,0.0
17124,108566780.57700384
2,1, 7,21, 0, 3, 0.00,60.00,SummerDesignDay
127,2508108158.7183676
175,433784438.26624376
4948,1240204499.9999971
16617,51095956.30357242
17055,0.0
17096,0.0
17180,783023264.1485555
17192,509626835.39365864
2,1, 7,21, 0, 4, 0.00,60.00,SummerDesignDay
126,2491336640.1483884
174,433784438.26624376
4947,1240204499.9999971
8118,333666000.0
16579,161429526.87688276
16616,51095956.30357242
16718,450274925.73270595
16794,1.4819819725360552
16818,0.0
16917,46440316.424581625
16942,1.4819819725360552
17005,159703588.41327545
17029,159703588.41327545
17054,0.0
17095,0.0
17124,108106976.54440588
2,1, 7,21, 0, 4, 0.00,60.00,SummerDesignDay
127,2491336640.1483884
175,433784438.26624376
4948,1240204499.9999971
16617,51095956.30357242
17055,0.0
17096,0.0
17180,766251745.5785763
17192,496715242.1572876
2,1, 7,21, 0, 5, 0.00,60.00,SummerDesignDay
126,2492613166.1343203
174,433784438.26624376
4947,1240204499.9999971
8118,333666000.0
16579,164991273.5932481
16616,51095956.30357242
16718,446143809.5374942
16794,1.4706671455692404
16818,0.0
16917,47001819.31711295
16942,1.4706671455692404
17005,191560244.35195467
17029,191560244.35195467
17054,0.0
17095,1274462.8185597025
17124,108116906.29809369
2,1, 7,21, 0, 5, 0.00,60.00,SummerDesignDay
127,2492613166.1343203
175,433784438.26624376
4948,1240204499.9999971
16617,51095956.30357242
17055,0.0
17096,1274462.8185597025
17180,766253808.7459488
17192,493145628.8546071
2,1, 7,21, 0, 6, 0.00,60.00,SummerDesignDay
126,2443569416.8982596
174,433784438.26624376
4947,1240204499.9999971
8118,333666000.0
16579,164471655.27780196
16616,0.0
16718,450788716.06507117
16794,1.473633536849856
16818,0.0
16917,46194277.814140975
16942,1.473633536849856
17005,0.0
17029,0.0
17054,0.0
17095,0.0
17124,108125829.47500661
2,1, 7,21, 0, 6, 0.00,60.00,SummerDesignDay
127,2443569416.8982596
175,433784438.26624376
4948,1240204499.9999971
16617,0.0
17055,0.0
17096,0.0
17180,769580478.6320207
17192,496982993.87921214
2,1, 7,21, 0, 7, 0.00,60.00,SummerDesignDay
126,2553378111.083302
174,433784438.26624376
4947,1240204499.9999971
8118,333666000.0
16579,202722367.6852639
16616,0.0
16718,508945394.2536738
16794,1.726744566777431
16818,0.00496005663417768
16917,50342314.04027848
16942,1.7217845101432534
17005,0.0
17029,0.0
17054,0.0
17095,6099294.384170978
17124,111279802.45367591
2,1, 7,21, 0, 7, 0.00,60.00,SummerDesignDay
127,2553378111.083302
175,433784438.26624376
4948,1240204499.9999971
16617,0.0
17055,0.0
17096,6099294.384170978
17180,873289878.4328921
17192,559287708.2939522
2,1, 7,21, 0, 8, 0.00,60.00,SummerDesignDay
126,2729993097.3293715
174,433784438.26624376
4947,1240204499.9999971
8118,333666000.0
16579,267214807.65331614
16616,0.0
16718,613484147.8204985
16794,2.1268774606527154
16818,0.01346301086419656
16917,52787531.248233296
16942,2.113414449788519
17005,32978000.23748028
17029,32978000.23748028
17054,0.0
17095,5707298.477633966
17124,116810373.86345063
2,1, 7,21, 0, 8, 0.00,60.00,SummerDesignDay
127,2729993097.3293715
175,433784438.26624376
4948,1240204499.9999971
16617,0.0
17055,0.0
17096,5707298.477633966
17180,1050296860.5854986
17192,666271679.0687318
2,1, 7,21, 0, 9, 0.00,60.00,SummerDesignDay
126,2856701613.100017
174,433784438.26624376
4947,1240204499.9999971
8118,333666000.0
16579,323130479.8201337
16616,0.0
16718,674239839.75298
16794,2.6623583231834154
16818,0.0248002831708884
16917,57348270.18521308
16942,2.637558040012527
17005,2256910.217924458
17029,2256910.217924458
17054,0.0
17095,6582040.939124778
17124,121412044.13632654
2,1, 7,21, 0, 9, 0.00,60.00,SummerDesignDay
127,2856701613.100017
175,433784438.26624376
4948,1240204499.9999971
16617,0.0
17055,0.0
17096,6582040.939124778
17180,1176130633.8946536
17192,731588109.9381931
2,1, 7,21, 0,10, 0.00,60.00,SummerDesignDay
126,2901457556.2628536
174,433784438.26624376
4947,1240204499.9999971
8118,333666000.0
16579,339603993.54391205
16616,0.0
16718,702237199.9061813
16794,2.9909901785552897
16818,0.02692602172839312
16917,57232570.347822905
16942,2.9640641568268964
17005,0.0
17029,0.0
17054,0.0
17095,5336940.843065253
17124,123057913.3556324
2,1, 7,21, 0,10, 0.00,60.00,SummerDesignDay
127,2901457556.2628536
175,433784438.26624376
4948,1240204499.9999971
16617,0.0
17055,0.0
17096,5336940.843065253
17180,1222131677.153549
17192,759469770.2540042
2,1, 7,21, 0,11, 0.00,60.00,SummerDesignDay
126,2866421421.6590047
174,433784438.26624376
4947,1240204499.9999971
8118,333666000.0
16579,310622832.3197223
16616,0.0
16718,699488308.9745553
16794,3.1511388816051515
16818,0.027634601247561365
16917,53946333.72690705
16942,3.12350428035759
17005,0.0
17029,0.0
17054,0.0
17095,7052302.963489597
17124,121322705.40809132
2,1, 7,21, 0,11, 0.00,60.00,SummerDesignDay
127,2866421421.6590047
175,433784438.26624376
4948,1240204499.9999971
16617,0.0
17055,0.0
17096,7052302.963489597
17180,1185380180.429276
17192,753434642.7014623
2,1, 7,21, 0,12, 0.00,60.00,SummerDesignDay
126,2796361122.95342
174,433784438.26624376
4947,1240204499.9999971
8118,333666000.0
16579,267167086.29572976
16616,0.0
16718,678870078.086891
16794,3.180702380384202
16818,0.03330323740090728
16917,50966007.41045669
16942,3.1473991429832946
17005,0.0
17029,0.0
17054,0.0
17095,6890548.169485783
17124,118478464.72461794
2,1, 7,21, 0,12, 0.00,60.00,SummerDesignDay
127,2796361122.95342
175,433784438.26624376
4948,1240204499.9999971
16617,0.0
17055,0.0
17096,6890548.169485783
17180,1115481636.5176954
17192,729836085.4973477
2,1, 7,21, 0,13, 0.00,60.00,SummerDesignDay
126,2784821695.169277
174,433784438.26624376
4947,1240204499.9999971
8118,333666000.0
16579,252704404.04610342
16616,0.0
16718,677586065.0110095
16794,3.3251406430716823
16818,0.04038903259258968
16917,56106539.27335439
16942,3.2847516104790926
17005,0.0
17029,0.0
17054,0.0
17095,6386546.908279019
17124,118049201.66429126
2,1, 7,21, 0,13, 0.00,60.00,SummerDesignDay
127,2784821695.169277
175,433784438.26624376
4948,1240204499.9999971
16617,0.0
17055,0.0
17096,6386546.908279019
17180,1104446209.9947586
17192,733692604.2843639
2,1, 7,21, 0,14, 0.00,60.00,SummerDesignDay
126,2868989609.414097
174,433784438.26624376
4947,1240204499.9999971
8118,333666000.0
16579,282539796.4345784
16616,0.0
16718,718276259.3862398
16794,3.6104732603890985
16818,0.038263294035084966
16917,65156603.962215036
16942,3.5722099663540137
17005,0.0
17029,0.0
17054,0.0
17095,7439392.063199786
17124,121588619.30162422
2,1, 7,21, 0,14, 0.00,60.00,SummerDesignDay
127,2868989609.414097
175,433784438.26624376
4948,1240204499.9999971
16617,0.0
17055,0.0
17096,7439392.063199786
17180,1187561279.0846577
17192,783432863.3484548
2,1, 7,21, 0,15, 0.00,60.00,SummerDesignDay
126,2598393045.281881
174,433784438.26624376
4947,1240204499.9999971
8118,333666000.0
16579,137793322.4179762
16616,0.0
16718,615815830.5656383
16794,3.08707924953619
16818,0.024091703651720163
16917,51968823.73202637
16942,3.0629875458844698
17005,0.0
17029,0.0
17054,0.0
17095,6736591.976456133
17124,112089538.32354409
2,1, 7,21, 0,15, 0.00,60.00,SummerDesignDay
127,2598393045.281881
175,433784438.26624376
4948,1240204499.9999971
16617,0.0
17055,0.0
17096,6736591.976456133
17180,917667515.0391848
17192,667784654.2976646
2,1, 7,21, 0,16, 0.00,60.00,SummerDesignDay
126,2705603724.6267195
174,433784438.26624376
4947,1240204499.9999971
8118,333666000.0
16579,168281721.60608557
16616,0.0
16718,685497384.7215302
16794,3.3244911865742597
16818,0.023383124132551922
16917,56267915.449116856
16942,3.301108062441708
17005,0.0
17029,0.0
17054,0.0
17095,5113750.950308531
17124,116454013.63343906
2,1, 7,21, 0,16, 0.00,60.00,SummerDesignDay
127,2705603724.6267195
175,433784438.26624376
4948,1240204499.9999971
16617,0.0
17055,0.0
17096,5113750.950308531
17180,1026501035.4101717
17192,741765300.170647
2,1, 7,21, 0,17, 0.00,60.00,SummerDesignDay
126,2770867230.1359177
174,433784438.26624376
4947,1240204499.9999971
8118,333666000.0
16579,195264949.81766263
16616,0.0
16718,720481742.646848
16794,3.3574995030338908
16818,0.03117749884340256
16917,54875353.60792077
16942,3.326322004190488
17005,0.0
17029,0.0
17054,0.0
17095,7019649.026797394
17124,119236596.77045013
2,1, 7,21, 0,17, 0.00,60.00,SummerDesignDay
127,2770867230.1359177
175,433784438.26624376
4948,1240204499.9999971
16617,0.0
17055,0.0
17096,7019649.026797394
17180,1089858642.8428814
17192,775357096.2547687
2,1, 7,21, 0,18, 0.00,60.00,SummerDesignDay
126,2741903257.223359
174,433784438.26624376
4947,1240204499.9999971
8118,333666000.0
16579,191366711.87061408
16616,0.0
16718,697964808.4410201
16794,3.140026579343827
16818,0.01842306749837424
16917,54361750.57549463
16942,3.1216035118454526
17005,0.0
17029,0.0
17054,0.0
17095,6059981.948606327
17124,118161066.12138462
2,1, 7,21, 0,18, 0.00,60.00,SummerDesignDay
127,2741903257.223359
175,433784438.26624376
4948,1240204499.9999971
16617,0.0
17055,0.0
17096,6059981.948606327
17180,1061854337.0085135
17192,752326559.0165148
2,1, 7,21, 0,19, 0.00,60.00,SummerDesignDay
126,2679756622.591252
174,433784438.26624376
4947,1240204499.9999971
8118,333666000.0
16579,181196076.0719687
16616,0.0
16718,651920785.2112668
16794,2.7614931311699054
16818,0.01488016990253304
16917,52170804.12741693
16942,2.746612961267372
17005,0.0
17029,0.0
17054,0.0
17095,4652754.13706327
17124,115827264.77729616
2,1, 7,21, 0,19, 0.00,60.00,SummerDesignDay
127,2679756622.591252
175,433784438.26624376
4948,1240204499.9999971
16617,0.0
17055,0.0
17096,4652754.13706327
17180,1001114930.1879485
17192,704091589.3386837
2,1, 7,21, 0,20, 0.00,60.00,SummerDesignDay
126,2713688624.847431
174,433784438.26624376
4947,1240204499.9999971
8118,333666000.0
16579,192559592.8027509
16616,51095956.30357242
16718,624361320.7648208
16794,2.5003383334843434
16818,0.010628692787523599
16917,50897567.396815896
16942,2.48970964069682
17005,0.0
17029,0.0
17054,0.0
17095,5867087.833351905
17124,114918161.47987972
2,1, 7,21, 0,20, 0.00,60.00,SummerDesignDay
127,2713688624.847431
175,433784438.26624376
4948,1240204499.9999971
16617,51095956.30357242
17055,0.0
17096,5867087.833351905
17180,982736642.4442673
17192,675258888.1616367
2,1, 7,21, 0,21, 0.00,60.00,SummerDesignDay
126,2733473185.3735905
174,433784438.26624376
4947,1240204499.9999971
8118,333666000.0
16579,218826107.90042996
16616,51095956.30357242
16718,617204416.6136755
16794,2.363697531257897
16818,0.012045851825860081
16917,51627662.81611564
16942,2.351651679432037
17005,0.0
17029,0.0
17054,0.0
17095,5339918.002706712
17124,115390185.47085072
2,1, 7,21, 0,21, 0.00,60.00,SummerDesignDay
127,2733473185.3735905
175,433784438.26624376
4948,1240204499.9999971
16617,51095956.30357242
17055,0.0
17096,5339918.002706712
17180,1003048372.8010719
17192,668832079.4297911
2,1, 7,21, 0,22, 0.00,60.00,SummerDesignDay
126,2670508632.441295
174,433784438.26624376
4947,1240204499.9999971
8118,333666000.0
16579,201407401.57871696
16616,51095956.30357242
16718,578212408.3384862
16794,2.0733869085406527
16818,0.0056686361533459205
16917,48454942.714981936
16942,2.0677182723873067
17005,0.0
17029,0.0
17054,0.0
17095,4237115.797893824
17124,113111869.44140403
2,1, 7,21, 0,22, 0.00,60.00,SummerDesignDay
127,2670508632.441295
175,433784438.26624376
4948,1240204499.9999971
16617,51095956.30357242
17055,0.0
17096,4237115.797893824
17180,941186622.0735891
17192,626667351.0534681
2,1, 7,21, 0,23, 0.00,60.00,SummerDesignDay
126,2615647444.293124
174,433784438.26624376
4947,1240204499.9999971
8118,333666000.0
16579,181525776.08460775
16616,51095956.30357242
16718,547021908.3308177
16794,1.8408436599616502
16818,0.0035428975958412007
16917,45713871.71303328
16942,1.837300762365809
17005,3264815.955136209
17029,3264815.955136209
17054,0.0
17095,4997036.579644945
17124,111303957.01520823