Program Version,EnergyPlus, Version 23.2.0-7636e6b3e9, YMD=2024.01.24 11:27
1,5,Environment Title[],Latitude[deg],Longitude[deg],Time Zone[],Elevation[m]
2,8,Day of Simulation[],Month[],Day of Month[],DST Indicator[1=yes 0=no],Hour[],StartMinute[],EndMinute[],DayType
3,5,Cumulative Day of Simulation[],Month[],Day of Month[],DST Indicator[1=yes 0=no],DayType  ! When Daily Meters Requested
4,2,Cumulative Days of Simulation[],Month[]  ! When Monthly Meters Requested
5,1,Cumulative Days of Simulation[] ! When Run Period Meters Requested
6,1,Calendar Year of Simulation[] ! When Annual Meters Requested
17054,1,Heating:Electricity [kWh] !TimeStep
17029,1,Heating:NaturalGas [kBtu] !TimeStep
16718,1,Cooling:Electricity [kWh] !TimeStep
174,1,InteriorLights:Electricity [kWh] !TimeStep
16616,1,ExteriorLights:Electricity [kWh] !TimeStep
4947,1,InteriorEquipment:Electricity [kWh] !TimeStep
16579,1,Fans:Electricity [kWh] !TimeStep
17124,1,Pumps:Electricity [kWh] !TimeStep
16917,1,HeatRejection:Electricity [kWh] !TimeStep
16942,1,HeatRejection:Water [gal] !TimeStep
17095,1,WaterSystems:Electricity [kWh] !TimeStep
16818,1,WaterSystems:Water [gal] !TimeStep
126,1,Electricity:Facility [kWh] !TimeStep
17005,1,NaturalGas:Facility [kBtu] !TimeStep
16794,1,Water:Facility [gal] !TimeStep
8118,1,Elevators:InteriorEquipment:Electricity [kWh] !TimeStep
127,1,Electricity:Facility [kWh] !Hourly
17055,1,Heating:Electricity [kWh] !Hourly
175,1,InteriorLights:Electricity [kWh] !Hourly
16617,1,ExteriorLights:Electricity [kWh] !Hourly
4948,1,InteriorEquipment:Electricity [kWh] !Hourly
17096,1,WaterSystems:Electricity [kWh] !Hourly
17180,1,TOTALHVAC:ELECTRICITY [kWh] !Hourly
17192,1,COOLINGHVAC:ELECTRICITY [kWh] !Hourly
17010,11,NaturalGas:Facility [kBtu] !RunPeriod [Value,Min,Month,Day,Hour,Minute,Max,Month,Day,Hour,Minute]
17034,11,Heating:NaturalGas [kBtu] !RunPeriod [Value,Min,Month,Day,Hour,Minute,Max,Month,Day,Hour,Minute]
17208,11,TOTALHVAC:NATURALGAS [kBtu] !RunPeriod [Value,Min,Month,Day,Hour,Minute,Max,Month,Day,Hour,Minute]
17007,7,NaturalGas:Facility [kBtu] !Daily [Value,Min,Hour,Minute,Max,Hour,Minute]
128,7,Electricity:Facility [kWh] !Daily [Value,Min,Hour,Minute,Max,Hour,Minute]
End of Data Dictionary
1,MAXWELL AFB ANN CLG .4% CONDNS DB=>MWB 1 HVAC Sizing Pass 1,  32.38, -86.36,  -6.00,  52.00
2,1, 7,21, 0, 1, 0.00,60.00,SummerDesignDay
126,678.66943700142224
174,120.49568693583301
4947,344.50127756009920
8118,92.685007414799998
16579,38.340215588115669
16616,14.193322330902479
16718,118.88409432110552
16794,583.27534477143615
16818,0.0000000000000000
16917,12.575771240199419
16942,583.27534477143615
17005,3.6440715719964532
17029,3.6440715719964532
17054,0.0000000000000000
17095,0.0000000000000000
17124,29.679069025167472
2,1, 7,21, 0, 1, 0.00,60.00,SummerDesignDay
127,678.66943700142224
175,120.49568693583301
4948,344.50127756009920
16617,14.193322330902479
17055,0.0000000000000000
17096,0.0000000000000000
17180,199.47915017458809
17192,131.45986556130495
2,1, 7,21, 0, 2, 0.00,60.00,SummerDesignDay
126,677.67229287060309
174,120.49568693583301
4947,344.50127756009920
8118,92.685007414799998
16579,38.199649548038337
16616,14.193322330902479
16718,118.03061350391978
16794,566.62218417158840
16818,0.0000000000000000
16917,12.593152279879989
16942,566.62218417158840
17005,9.0623595547718736
17029,9.0623595547718736
17054,0.0000000000000000
17095,0.0000000000000000
17124,29.658590711930728
2,1, 7,21, 0, 2, 0.00,60.00,SummerDesignDay
127,677.67229287060309
175,120.49568693583301
4948,344.50127756009920
16617,14.193322330902479
17055,0.0000000000000000
17096,0.0000000000000000
17180,198.48200604376885
17192,130.62376578379977
2,1, 7,21, 0, 3, 0.00,60.00,SummerDesignDay
126,694.68407932918387
174,120.49568693583301
4947,344.50127756009920
8118,92.685007414799998
16579,47.644869869743040
16616,14.193322330902479
16718,123.92405039196274
16794,596.24365547150740
16818,0.0000000000000000
16917,13.799759919529212
16942,596.24365547150740
17005,21.740749102515583
17029,21.740749102515583
17054,0.0000000000000000
17095,0.0000000000000000
17124,30.125112321114415
2,1, 7,21, 0, 3, 0.00,60.00,SummerDesignDay
127,694.68407932918387
175,120.49568693583301
4948,344.50127756009920
16617,14.193322330902479
17055,0.0000000000000000
17096,0.0000000000000000
17180,215.49379250234944
17192,137.72381031149195
2,1, 7,21, 0, 4, 0.00,60.00,SummerDesignDay
126,690.87256302490550
174,120.49568693583301
4947,344.50127756009920
8118,92.685007414799998
16579,46.333384167241952
16616,14.193322330902479
16718,121.75843847490644
16794,575.84178862445401
16818,0.0000000000000000
16917,13.580325333149739
16942,575.84178862445401
17005,45.761032008335967
17029,45.761032008335967
17054,0.0000000000000000
17095,0.0000000000000000
17124,30.010128222773041
2,1, 7,21, 0, 4, 0.00,60.00,SummerDesignDay
127,690.87256302490550
175,120.49568693583301
4948,344.50127756009920
16617,14.193322330902479
17055,0.0000000000000000
17096,0.0000000000000000
17180,211.68227619807112
17192,135.33876380805617
2,1, 7,21, 0, 5, 0.00,60.00,SummerDesignDay
126,691.97614632171428
174,120.49568693583301
4947,344.50127756009920
8118,92.685007414799998
16579,47.205432275309910
16616,14.193322330902479
16718,121.55325957678426
16794,569.27019948683130
16818,0.0000000000000000
16917,13.648121264084955
16942,569.27019948683130
17005,72.405863387851738
17029,72.405863387851738
17054,0.0000000000000000
17095,0.35401747792139360
17124,30.025028900779208
2,1, 7,21, 0, 5, 0.00,60.00,SummerDesignDay
127,691.97614632171428
175,120.49568693583301
4948,344.50127756009920
16617,14.193322330902479
17055,0.0000000000000000
17096,0.35401747792139360
17180,212.43184201695834
17192,135.20138084086921
2,1, 7,21, 0, 6, 0.00,60.00,SummerDesignDay
126,679.27843109631635
174,120.49568693583301
4947,344.50127756009920
8118,92.685007414799998
16579,47.704078804746409
16616,0.0000000000000000
16718,122.75425923510819
16794,581.10858967888680
16818,0.0000000000000000
16917,13.733077834543280
16942,581.10858967888680
17005,49.646466942808821
17029,49.646466942808821
17054,0.0000000000000000
17095,0.0000000000000000
17124,30.090050725986423
2,1, 7,21, 0, 6, 0.00,60.00,SummerDesignDay
127,679.27843109631635
175,120.49568693583301
4948,344.50127756009920
16617,0.0000000000000000
17055,0.0000000000000000
17096,0.0000000000000000
17180,214.28146660038431
17192,136.48733706965149
2,1, 7,21, 0, 7, 0.00,60.00,SummerDesignDay
126,714.78452476766063
174,120.49568693583301
4947,344.50127756009920
8118,92.685007414799998
16579,63.635561486954124
16616,0.0000000000000000
16718,137.36071835212144
16794,687.65529441775470
16818,1.3103080811639860
16917,15.961138712985971
16942,686.34498633659064
17005,11.636319714289867
17029,11.636319714289867
17054,0.0000000000000000
17095,1.6916924747923787
17124,31.138449244875030
2,1, 7,21, 0, 7, 0.00,60.00,SummerDesignDay
127,714.78452476766063
175,120.49568693583301
4948,344.50127756009920
16617,0.0000000000000000
17055,0.0000000000000000
17096,1.6916924747923787
17180,248.09586779693660
17192,153.32185706510739
2,1, 7,21, 0, 8, 0.00,60.00,SummerDesignDay
126,758.85970761281737
174,120.49568693583301
4947,344.50127756009920
8118,92.685007414799998
16579,85.312296053624067
16616,0.0000000000000000
16718,156.11502971904685
16794,841.33579463734861
16818,3.5565505060165341
16917,18.217406006574052
16942,837.77924413133212
17005,0.67222463236088503
17029,0.67222463236088503
17054,0.0000000000000000
17095,1.5901861392330006
17124,32.627825198407393
2,1, 7,21, 0, 8, 0.00,60.00,SummerDesignDay
127,758.85970761281737
175,120.49568693583301
4948,344.50127756009920
16617,0.0000000000000000
17055,0.0000000000000000
17096,1.5901861392330006
17180,292.27255697765236
17192,174.33243572562088
2,1, 7,21, 0, 9, 0.00,60.00,SummerDesignDay
126,792.68771086720483
174,120.49568693583301
4947,344.50127756009920
8118,92.685007414799998
16579,101.95797754552896
16616,0.0000000000000000
16718,170.60704494815616
16794,975.77677502340669
16818,6.5515404058199307
16917,19.418730075167726
16942,969.22523461758681
17005,0.0000000000000000
17029,0.0000000000000000
17054,0.0000000000000000
17095,1.8236233166658269
17124,33.883370485754334
2,1, 7,21, 0, 9, 0.00,60.00,SummerDesignDay
127,792.68771086720483
175,120.49568693583301
4948,344.50127756009920
16617,0.0000000000000000
17055,0.0000000000000000
17096,1.8236233166658269
17180,325.86712305460719
17192,190.02577502332389
2,1, 7,21, 0,10, 0.00,60.00,SummerDesignDay
126,803.91422169230498
174,120.49568693583301
4947,344.50127756009920
8118,92.685007414799998
16579,106.26468118301867
16616,0.0000000000000000
16718,177.55350853571184
16794,1060.1729797719704
16818,7.1131010120330682
16917,19.305094362801032
16942,1053.0598787599374
17005,0.0000000000000000
17029,0.0000000000000000
17054,0.0000000000000000
17095,1.4825577553828226
17124,34.311415359458842
2,1, 7,21, 0,10, 0.00,60.00,SummerDesignDay
127,803.91422169230498
175,120.49568693583301
4948,344.50127756009920
16617,0.0000000000000000
17055,0.0000000000000000
17096,1.4825577553828226
17180,337.43469944099047
17192,196.85860289851286
2,1, 7,21, 0,11, 0.00,60.00,SummerDesignDay
126,792.61339288362660
174,120.49568693583301
4947,344.50127756009920
8118,92.685007414799998
16579,97.011044096216693
16616,0.0000000000000000
16718,176.81879772728325
16794,1095.4049033907927
16818,7.3002878807707816
16917,18.058194723990113
16942,1088.1046155100221
17005,0.0000000000000000
17029,0.0000000000000000
17054,0.0000000000000000
17095,1.9620466383709394
17124,33.766345201833808
2,1, 7,21, 0,11, 0.00,60.00,SummerDesignDay
127,792.61339288362660
175,120.49568693583301
4948,344.50127756009920
16617,0.0000000000000000
17055,0.0000000000000000
17096,1.9620466383709394
17180,325.65438174932393
17192,194.87699245127334
2,1, 7,21, 0,12, 0.00,60.00,SummerDesignDay
126,772.04440965607114
174,120.49568693583301
4947,344.50127756009920
8118,92.685007414799998
16579,83.944640031235764
16616,0.0000000000000000
16718,171.65446726413882
16794,1093.2784314487237
16818,8.7977828306724781
16917,16.614575180414157
16942,1084.4806486180512
17005,0.0000000000000000
17029,0.0000000000000000
17054,0.0000000000000000
17095,1.9097993536820024
17124,32.923963330668521
2,1, 7,21, 0,12, 0.00,60.00,SummerDesignDay
127,772.04440965607114
175,120.49568693583301
4948,344.50127756009920
16617,0.0000000000000000
17055,0.0000000000000000
17096,1.9097993536820024
17180,305.13764580645721
17192,188.26904244455298
2,1, 7,21, 0,13, 0.00,60.00,SummerDesignDay
126,771.55972546930195
174,120.49568693583301
4947,344.50127756009920
8118,92.685007414799998
16579,81.628719452357387
16616,0.0000000000000000
16718,173.82176749410846
16794,1126.0133679402020
16818,10.669651518049601
16917,16.409377555181806
16942,1115.3437164221525
17005,0.0000000000000000
17029,0.0000000000000000
17054,0.0000000000000000
17095,1.7735093102642152
17124,32.929387161458187
2,1, 7,21, 0,13, 0.00,60.00,SummerDesignDay
127,771.55972546930195
175,120.49568693583301
4948,344.50127756009920
16617,0.0000000000000000
17055,0.0000000000000000
17096,1.7735093102642152
17180,304.78925166310586
17192,190.23114504929026
2,1, 7,21, 0,14, 0.00,60.00,SummerDesignDay
126,803.70403881320817
174,120.49568693583301
4947,344.50127756009920
8118,92.685007414799998
16579,99.081188789570319
16616,0.0000000000000000
16718,185.84873379861941
16794,1204.7458531445982
16818,10.108090911836467
16917,17.809107642904181
16942,1194.6377622327618
17005,0.0000000000000000
17029,0.0000000000000000
17054,0.0000000000000000
17095,2.0713944222274114
17124,33.896649663955202
2,1, 7,21, 0,14, 0.00,60.00,SummerDesignDay
127,803.70403881320817
175,120.49568693583301
4948,344.50127756009920
16617,0.0000000000000000
17055,0.0000000000000000
17096,2.0713944222274114
17180,336.63567989504918
17192,203.65784144152357
2,1, 7,21, 0,15, 0.00,60.00,SummerDesignDay
126,708.02906207430692
174,120.49568693583301
4947,344.50127756009920
8118,92.685007414799998
16579,42.256098669519986
16616,0.0000000000000000
16718,154.47962945852419
16794,1019.4825962424623
16818,6.3643535370822191
16917,13.548067962555427
16942,1013.1182427053800
17005,0.0000000000000000
17029,0.0000000000000000
17054,0.0000000000000000
17095,1.8682520750811760
17124,30.880049412694198
2,1, 7,21, 0,15, 0.00,60.00,SummerDesignDay
127,708.02906207430692
175,120.49568693583301
4948,344.50127756009920
16617,0.0000000000000000
17055,0.0000000000000000
17096,1.8682520750811760
17180,241.16384550329383
17192,168.02769742107964
2,1, 7,21, 0,16, 0.00,60.00,SummerDesignDay
126,736.64371131473672
174,120.49568693583301
4947,344.50127756009920
8118,92.685007414799998
16579,51.922271963592166
16616,0.0000000000000000
16718,170.28881627406693
16794,1100.5028988401141
16818,6.1771666683445074
16917,16.010878564988751
16942,1094.3257321717695
17005,0.0000000000000000
17029,0.0000000000000000
17054,0.0000000000000000
17095,1.4205087329557691
17124,32.004271283201440
2,1, 7,21, 0,16, 0.00,60.00,SummerDesignDay
127,736.64371131473672
175,120.49568693583301
4948,344.50127756009920
16617,0.0000000000000000
17055,0.0000000000000000
17096,1.4205087329557691
17180,270.22623808584927
17192,186.29969483905566
2,1, 7,21, 0,17, 0.00,60.00,SummerDesignDay
126,754.53602260122375
174,120.49568693583301
4947,344.50127756009920
8118,92.685007414799998
16579,60.218052903671861
16616,0.0000000000000000
16718,177.14744399792991
16794,1124.0662770969961
16818,8.2362222244593415
16917,17.573709917628204
16942,1115.8300548725369
17005,0.0000000000000000
17029,0.0000000000000000
17054,0.0000000000000000
17095,1.9530663415003635
17124,32.646784944561603
2,1, 7,21, 0,17, 0.00,60.00,SummerDesignDay
127,754.53602260122375
175,120.49568693583301
4948,344.50127756009920
16617,0.0000000000000000
17055,0.0000000000000000
17096,1.9530663415003635
17180,287.58599176379158
17192,194.72115391555812
2,1, 7,21, 0,18, 0.00,60.00,SummerDesignDay
126,748.25772858411051
174,120.49568693583301
4947,344.50127756009920
8118,92.685007414799998
16579,58.910527543296112
16616,0.0000000000000000
16718,172.55853577777140
16794,1071.8930900559910
16818,4.8668585871805208
16917,17.601163790639237
16942,1067.0262314688105
17005,0.0000000000000000
17029,0.0000000000000000
17054,0.0000000000000000
17095,1.6823824074222149
17124,32.508154569049651
2,1, 7,21, 0,18, 0.00,60.00,SummerDesignDay
127,748.25772858411051
175,120.49568693583301
4948,344.50127756009920
16617,0.0000000000000000
17055,0.0000000000000000
17096,1.6823824074222149
17180,281.57838168075637
17192,190.15969956841062
2,1, 7,21, 0,19, 0.00,60.00,SummerDesignDay
126,730.82325972371223
174,120.49568693583301
4947,344.50127756009920
8118,92.685007414799998
16579,55.350661740134193
16616,0.0000000000000000
16718,160.56311312550949
16794,967.12632532069335
16818,3.9309242434919587
16917,16.776811711397801
16942,963.19540107720138
17005,0.0000000000000000
17029,0.0000000000000000
17054,0.0000000000000000
17095,1.2927697180193340
17124,31.842938932719591
2,1, 7,21, 0,19, 0.00,60.00,SummerDesignDay
127,730.82325972371223
175,120.49568693583301
4948,344.50127756009920
16617,0.0000000000000000
17055,0.0000000000000000
17096,1.2927697180193340
17180,264.53352550976109
17192,177.33992483690730
2,1, 7,21, 0,20, 0.00,60.00,SummerDesignDay
126,741.38219403982919
174,120.49568693583301
4947,344.50127756009920
8118,92.685007414799998
16579,58.569094317556043
16616,14.193322330902479
16718,153.98567591030275
16794,898.50489276960707
16818,2.8078030310656845
16917,16.383493889988522
16942,895.69708973854142
17005,0.0000000000000000
17029,0.0000000000000000
17054,0.0000000000000000
17095,1.6287452806677729
17124,31.624897814479656
2,1, 7,21, 0,20, 0.00,60.00,SummerDesignDay
127,741.38219403982919
175,120.49568693583301
4948,344.50127756009920
16617,14.193322330902479
17055,0.0000000000000000
17096,1.6287452806677729
17180,260.56316193232698
17192,170.36916980029127
2,1, 7,21, 0,21, 0.00,60.00,SummerDesignDay
126,748.62948937339797
174,120.49568693583301
4947,344.50127756009920
8118,92.685007414799998
16579,66.718460852726722
16616,14.193322330902479
16718,152.69336047395717
16794,867.68067859612654
16818,3.1821767685411095
16917,16.730992681114035
16942,864.49850182758541
17005,0.0000000000000000
17029,0.0000000000000000
17054,0.0000000000000000
17095,1.4833265138196878
17124,31.813062024946209
2,1, 7,21, 0,21, 0.00,60.00,SummerDesignDay
127,748.62948937339797
175,120.49568693583301
4948,344.50127756009920
16617,14.193322330902479
17055,0.0000000000000000
17096,1.4833265138196878
17180,267.95587603274413
17192,169.42435315507120
2,1, 7,21, 0,22, 0.00,60.00,SummerDesignDay
126,730.61911798432061
174,120.49568693583301
4947,344.50127756009920
8118,92.685007414799998
16579,59.853864994451136
16616,14.193322330902479
16718,143.44632939796332
16794,789.41134020462505
16818,1.4974949499016987
16917,15.733718762138775
16942,787.91384525472336
17005,0.0000000000000000
17029,0.0000000000000000
17054,0.0000000000000000
17095,1.1776989733180858
17124,31.217219029614814
2,1, 7,21, 0,22, 0.00,60.00,SummerDesignDay
127,730.61911798432061
175,120.49568693583301
4948,344.50127756009920
16617,14.193322330902479
17055,0.0000000000000000
17096,1.1776989733180858
17180,250.25113218416806
17192,159.18004816010210
2,1, 7,21, 0,23, 0.00,60.00,SummerDesignDay
126,713.26918000615876
174,120.49568693583301
4947,344.50127756009920
8118,92.685007414799998
16579,52.616659358835207
16616,14.193322330902479
16718,134.77110096228702
16794,718.23422070124900
16818,0.93593434368856177
16917,14.646078308930369
16942,717.29828635756041
17005,0.0000000000000000
17029,0.0000000000000000
17054,0.0000000000000000
17095,1.3866880858599140
17124,30.658366463411994
2,1, 7,21, 0,23, 0.00,60.00,SummerDesignDay
127,713.26918000615876
175,120.49568693583301
4948,344.50127756009920
16617,14.193322330902479
17055,0.0000000000000000
17096,1.3866880858599140
17180,232.69220509346462
17192,149.41717927121738
2,1, 7,21, 0,24, 0.00,60.00,SummerDesignDay
126,706.37329967925621
174,120.49568693583301
4947,344.50127756009920
8118,92.685007414799998
16579,50.831118424402426
16616,14.193322330902479
16718,130.20053255315241
16794,671.66648058495036
16818,0.93593434368856177
16917,14.234750924693390
16942,670.73054624126178
17005,0.15302659382390024
17029,0.15302659382390024
17054,0.0000000000000000
17095,1.4932789434072749
17124,30.423332006766429
2,1, 7,21, 0,24, 0.00,60.00,SummerDesignDay
127,706.37329967925621
175,120.49568693583301
4948,344.50127756009920
16617,14.193322330902479
17055,0.0000000000000000
17096,1.4932789434072749
17180,225.68973390901459
17192,144.43528347784579
3,1, 7,21, 0,SummerDesignDay
128,17641.883746787396,677.67229287060309, 2,60,803.91422169230498,10,60
17007,214.72211350875514,0.0000000000000000, 9,60,72.405863387851738, 5,60
5,1
17010,214.72211350875514,0.0000000000000000, 7,21, 9,60,72.405863387851738, 7,21, 5,60
17034,214.72211350875514,0.0000000000000000, 7,21, 9,60,72.405863387851738, 7,21, 5,60
17208,214.72211350875514,0.0000000000000000, 7,21, 9,60,72.405863387851738, 7,21, 5,60
1,MAXWELL AFB ANN CLG .4% CONDNS WB=>MDB 1 HVAC Sizing Pass 1,  32.38, -86.36,  -6.00,  52.00
2,1, 7,21, 0, 1, 0.00,60.00,SummerDesignDay
126,687.08658798987597
174,120.49568693583301
4947,344.50127756009920
8118,92.685007414799998
16579,38.083850426250265
16616,14.193322330902479
16718,128.24226456720396
16794,391.93557611633821
16818,0.0000000000000000
16917,11.716744662350408
16942,391.93557611633821
17005,40.288976483913046
17029,40.288976483913046
17054,0.0000000000000000
17095,0.0000000000000000
17124,29.853441507236994
2,1, 7,21, 0, 1, 0.00,60.00,SummerDesignDay
127,687.08658798987597
175,120.49568693583301
4948,344.50127756009920
16617,14.193322330902479
17055,0.0000000000000000
17096,0.0000000000000000
17180,207.89630116304164
17192,139.95900922955437
2,1, 7,21, 0, 2, 0.00,60.00,SummerDesignDay
126,683.94873463508679
174,120.49568693583301
4947,344.50127756009920
8118,92.685007414799998
16579,37.946673152908396
16616,14.193322330902479
16718,125.14846868593412
16794,381.09440681675130
16818,0.0000000000000000
16917,11.870086637321569
16942,381.09440681675130
17005,82.451693502577896
17029,82.451693502577896
17054,0.0000000000000000
17095,0.0000000000000000
17124,29.793219332088629
2,1, 7,21, 0, 2, 0.00,60.00,SummerDesignDay
127,683.94873463508679
175,120.49568693583301
4948,344.50127756009920
16617,14.193322330902479
17055,0.0000000000000000
17096,0.0000000000000000
17180,204.75844780825273
17192,137.01855532325570
2,1, 7,21, 0, 3, 0.00,60.00,SummerDesignDay
126,696.69676649083897
174,120.49568693583301
4947,344.50127756009920
8118,92.685007414799998
16579,45.786017045629158
16616,14.193322330902479
16718,128.63306368064030
16794,404.10710146238114
16818,0.0000000000000000
16917,12.929957475972333
16942,404.10710146238114
17005,117.42368089800965
17029,117.42368089800965
17054,0.0000000000000000
17095,0.0000000000000000
17124,30.157441461762858
2,1, 7,21, 0, 3, 0.00,60.00,SummerDesignDay
127,696.69676649083897
175,120.49568693583301
4948,344.50127756009920
16617,14.193322330902479
17055,0.0000000000000000
17096,0.0000000000000000
17180,217.50647966400462
17192,141.56302115661262
2,1, 7,21, 0, 4, 0.00,60.00,SummerDesignDay
126,692.03801095981100
174,120.49568693583301
4947,344.50127756009920
8118,92.685007414799998
16579,44.841538830901364
16616,14.193322330902479
16718,125.07637826519445
16794,391.49814164879484
16818,0.0000000000000000
16917,12.900088927724150
16942,391.49814164879484
17005,151.47113992667141
17029,151.47113992667141
17054,0.0000000000000000
17095,0.0000000000000000
17124,30.029718109156669
2,1, 7,21, 0, 4, 0.00,60.00,SummerDesignDay
127,692.03801095981100
175,120.49568693583301
4948,344.50127756009920
16617,14.193322330902479
17055,0.0000000000000000
17096,0.0000000000000000
17180,212.84772413297665
17192,137.97646719291859
2,1, 7,21, 0, 5, 0.00,60.00,SummerDesignDay
126,692.39260153982605
174,120.49568693583301
4947,344.50127756009920
8118,92.685007414799998
16579,45.830912997930554
16616,14.193322330902479
16718,123.92884589694415
16794,388.50908117931743
16818,0.0000000000000000
16917,13.056061965905139
16942,388.50908117931743
17005,181.68563940802682
17029,181.68563940802682
17054,0.0000000000000000
17095,0.35401747792131333
17124,30.032476374290610
2,1, 7,21, 0, 5, 0.00,60.00,SummerDesignDay
127,692.39260153982605
175,120.49568693583301
4948,344.50127756009920
16617,14.193322330902479
17055,0.0000000000000000
17096,0.35401747792131333
17180,212.84829723507042
17192,136.98490786284927
2,1, 7,21, 0, 6, 0.00,60.00,SummerDesignDay
126,678.76933677328134
174,120.49568693583301
4947,344.50127756009920
8118,92.685007414799998
16579,45.686574565426220
16616,0.0000000000000000
16718,125.21909781338013
16794,389.29271869670021
16818,0.0000000000000000
16917,12.831744863800889
16942,389.29271869670021
17005,0.0000000000000000
17029,0.0000000000000000
17054,0.0000000000000000
17095,0.0000000000000000
17124,30.034955034742492
2,1, 7,21, 0, 6, 0.00,60.00,SummerDesignDay
127,678.76933677328134
175,120.49568693583301
4948,344.50127756009920
16617,0.0000000000000000
17055,0.0000000000000000
17096,0.0000000000000000
17180,213.77237227734972
17192,138.05084267718101
2,1, 7,21, 0, 7, 0.00,60.00,SummerDesignDay
126,709.27175426487531
174,120.49568693583301
4947,344.50127756009920
8118,92.685007414799998
16579,56.311773306403701
16616,0.0000000000000000
16718,141.37373193591816
16794,456.15756569472757
16818,1.3103080811639862
16917,13.983977241017667
16942,454.84725761356356
17005,0.0000000000000000
17029,0.0000000000000000
17054,0.0000000000000000
17095,1.6942485755873693
17124,30.911058710016697
2,1, 7,21, 0, 7, 0.00,60.00,SummerDesignDay
127,709.27175426487531
175,120.49568693583301
4948,344.50127756009920
16617,0.0000000000000000
17055,0.0000000000000000
17096,1.6942485755873693
17180,242.58054119335623
17192,155.35770917693580
2,1, 7,21, 0, 8, 0.00,60.00,SummerDesignDay
126,758.33147659133874
174,120.49568693583301
4947,344.50127756009920
8118,92.685007414799998
16579,74.226341397361324
16616,0.0000000000000000
16718,170.41227691645287
16794,561.86147253554918
16818,3.5565505060165341
16917,14.663204297565500
16942,558.30492202953269
17005,31.278040387838576
17029,31.278040387838576
17054,0.0000000000000000
17095,1.5853608150605123
17124,32.447328668966819
2,1, 7,21, 0, 8, 0.00,60.00,SummerDesignDay
127,758.33147659133874
175,120.49568693583301
4948,344.50127756009920
16617,0.0000000000000000
17055,0.0000000000000000
17096,1.5853608150605123
17180,291.74915128034650
17192,185.07548121401837
2,1, 7,21, 0, 9, 0.00,60.00,SummerDesignDay
126,793.52828934337390
174,120.49568693583301
4947,344.50127756009920
8118,92.685007414799998
16579,89.758473797381129
16616,0.0000000000000000
16718,187.28885935893533
16794,703.32052295200924
16818,6.5515404058199307
16917,15.930076325854083
16942,696.76898254618936
17005,2.1405703329378225
17029,2.1405703329378225
17054,0.0000000000000000
17095,1.8283448515800147
17124,33.725570513691686
2,1, 7,21, 0, 9, 0.00,60.00,SummerDesignDay
127,793.52828934337390
175,120.49568693583301
4948,344.50127756009920
16617,0.0000000000000000
17055,0.0000000000000000
17096,1.8283448515800147
17180,326.70297999586228
17192,203.21893568478941
2,1, 7,21, 0,10, 0.00,60.00,SummerDesignDay
126,805.96049677207168
174,120.49568693583301
4947,344.50127756009920
8118,92.685007414799998
16579,94.334450197842088
16616,0.0000000000000000
16718,195.06590446809926
16794,790.13585744930811
16818,7.1131010120330682
16917,15.897937479563481
16942,783.02275643727489
17005,0.0000000000000000
17029,0.0000000000000000
17054,0.0000000000000000
17095,1.4824836861168114
17124,34.182756444518184
2,1, 7,21, 0,10, 0.00,60.00,SummerDesignDay
127,805.96049677207168
175,120.49568693583301
4948,344.50127756009920
16617,0.0000000000000000
17055,0.0000000000000000
17096,1.4824836861168114
17180,339.48104859002308
17192,210.96384194766273
2,1, 7,21, 0,11, 0.00,60.00,SummerDesignDay
126,796.22823638131069
174,120.49568693583301
4947,344.50127756009920
8118,92.685007414799998
16579,86.284126991541356
16616,0.0000000000000000
16718,194.30232359267222
16794,832.44266063139617
16818,7.3002878807707816
16917,14.985093900726042
16942,825.14237275062533
17005,0.0000000000000000
17029,0.0000000000000000
17054,0.0000000000000000
17095,1.9589732021316206
17124,33.700754198307713
2,1, 7,21, 0,11, 0.00,60.00,SummerDesignDay
127,796.22823638131069
175,120.49568693583301
4948,344.50127756009920
16617,0.0000000000000000
17055,0.0000000000000000
17096,1.9589732021316206
17180,329.27229868324736
17192,209.28741749339824
2,1, 7,21, 0,12, 0.00,60.00,SummerDesignDay
126,776.76704073953056
174,120.49568693583301
4947,344.50127756009920
8118,92.685007414799998
16579,74.213085463637967
16616,0.0000000000000000
16718,188.57503677680481
16794,840.25250923085548
16818,8.7977828306724781
16917,14.157225413260356
16942,831.45472640018295
17005,0.0000000000000000
17029,0.0000000000000000
17054,0.0000000000000000
17095,1.9140413113137880
17124,32.910687278581982
2,1, 7,21, 0,12, 0.00,60.00,SummerDesignDay
127,776.76704073953056
175,120.49568693583301
4948,344.50127756009920
16617,0.0000000000000000
17055,0.0000000000000000
17096,1.9140413113137880
17180,309.85603493228513
17192,202.73226219006514
2,1, 7,21, 0,13, 0.00,60.00,SummerDesignDay
126,773.56164387639251
174,120.49568693583301
4947,344.50127756009920
8118,92.685007414799998
16579,70.195673406237702
16616,0.0000000000000000
16718,188.21836644941519
16794,878.40905396153255
16818,10.669651518049601
16917,15.585151044965981
16942,867.73940244348296
17005,0.0000000000000000
17029,0.0000000000000000
17054,0.0000000000000000
17095,1.7740409497785479
17124,32.791447530063166
2,1, 7,21, 0,13, 0.00,60.00,SummerDesignDay
127,773.56164387639251
175,120.49568693583301
4948,344.50127756009920
16617,0.0000000000000000
17055,0.0000000000000000
17096,1.7740409497785479
17180,306.79063843068207
17192,203.80351749438117
2,1, 7,21, 0,14, 0.00,60.00,SummerDesignDay
126,796.94162192590716
174,120.49568693583301
4947,344.50127756009920
8118,92.685007414799998
16579,78.483283066045033
16616,0.0000000000000000
16718,199.52119912453904
16794,953.78594214350903
16818,10.108090911836467
16917,18.099058104095377
16942,943.67785123167255
17005,0.0000000000000000
17029,0.0000000000000000
17054,0.0000000000000000
17095,2.0664979606530975
17124,33.774619174642716
2,1, 7,21, 0,14, 0.00,60.00,SummerDesignDay
127,796.94162192590716
175,120.49568693583301
4948,344.50127756009920
16617,0.0000000000000000
17055,0.0000000000000000
17096,2.0664979606530975
17180,329.87815946932221
17192,217.62025722863442
2,1, 7,21, 0,15, 0.00,60.00,SummerDesignDay
126,721.77590365370122
174,120.49568693583301
4947,344.50127756009920
8118,92.685007414799998
16579,38.275925955956112
16616,0.0000000000000000
16718,171.05996661969576
16794,815.51989950847451
16818,6.3643535370822191
16917,14.435785524870074
16942,809.15554597139226
17005,0.0000000000000000
17029,0.0000000000000000
17054,0.0000000000000000
17095,1.8712756987176364
17124,31.135985358529766
2,1, 7,21, 0,15, 0.00,60.00,SummerDesignDay
127,721.77590365370122
175,120.49568693583301
4948,344.50127756009920
16617,0.0000000000000000
17055,0.0000000000000000
17096,1.8712756987176364
17180,254.90766345905166
17192,185.49575214456584
2,1, 7,21, 0,16, 0.00,60.00,SummerDesignDay
126,751.55665029861598
174,120.49568693583301
4947,344.50127756009920
8118,92.685007414799998
16579,46.744926407950913
16616,0.0000000000000000
16718,190.41595543370028
16794,878.23748573969544
16818,6.1771666683445074
16917,15.629977764041692
16942,872.06031907135093
17005,0.0000000000000000
17029,0.0000000000000000
17054,0.0000000000000000
17095,1.4204864887246129
17124,32.348339708266707
2,1, 7,21, 0,16, 0.00,60.00,SummerDesignDay
127,751.55665029861598
175,120.49568693583301
4948,344.50127756009920
16617,0.0000000000000000
17055,0.0000000000000000
17096,1.4204864887246129
17180,285.13919931395964
17192,206.04593319774196
2,1, 7,21, 0,17, 0.00,60.00,SummerDesignDay