Program Version,EnergyPlus, Version 23.2.0-7636e6b3e9, YMD=2024.01.24 11:18
1,5,Environment Title[],Latitude[deg],Longitude[deg],Time Zone[],Elevation[m]
2,8,Day of Simulation[],Month[],Day of Month[],DST Indicator[1=yes 0=no],Hour[],StartMinute[],EndMinute[],DayType
3,5,Cumulative Day of Simulation[],Month[],Day of Month[],DST Indicator[1=yes 0=no],DayType  ! When Daily Report Variables Requested
4,2,Cumulative Days of Simulation[],Month[]  ! When Monthly Report Variables Requested
5,1,Cumulative Days of Simulation[] ! When Run Period Report Variables Requested
6,1,Calendar Year of Simulation[] ! When Annual Report Variables Requested
9,1,Electricity:Facility [J] !TimeStep
16737,1,NaturalGas:Facility [J] !TimeStep
End of Data Dictionary
1,MAXWELL AFB ANN CLG .4% CONDNS DB=>MWB 1 HVAC Sizing Pass 1,  32.38, -86.36,  -6.00,  52.00
2,1, 7,21, 0, 1, 0.00,15.00,SummerDesignDay
9,622038454.5997916
16737,2478192.128973557
2,1, 7,21, 0, 1,15.00,30.00,SummerDesignDay
9,621215325.8318965
16737,3400019.0801300774
2,1, 7,21, 0, 1,30.00,45.00,SummerDesignDay
9,620439318.8208811
16737,4356834.717055336
2,1, 7,21, 0, 1,45.00,60.00,SummerDesignDay
9,619701597.0903593
16737,5523815.667824405
2,1, 7,21, 0, 2, 0.00,15.00,SummerDesignDay
9,619093521.7316911
16737,6936333.28084357
2,1, 7,21, 0, 2,15.00,30.00,SummerDesignDay
9,618528690.3371553
16737,8310191.345593592
2,1, 7,21, 0, 2,30.00,45.00,SummerDesignDay
9,617982354.5429894
16737,9858575.102004703
2,1, 7,21, 0, 2,45.00,60.00,SummerDesignDay
9,617455791.8297698
16737,11462058.041994415
2,1, 7,21, 0, 3, 0.00,15.00,SummerDesignDay
9,617008653.8340485
16737,13142816.780813385
2,1, 7,21, 0, 3,15.00,30.00,SummerDesignDay
9,616625130.7317454
16737,15000067.22482899
2,1, 7,21, 0, 3,30.00,45.00,SummerDesignDay
9,616255423.6923809
16737,16967172.078410614
2,1, 7,21, 0, 3,45.00,60.00,SummerDesignDay
9,615893067.3824502
16737,18749730.894986045
2,1, 7,21, 0, 4, 0.00,15.00,SummerDesignDay
9,615534789.9854622
16737,20582637.651303165
2,1, 7,21, 0, 4,15.00,30.00,SummerDesignDay
9,615181594.3374397
16737,22313433.060990773
2,1, 7,21, 0, 4,30.00,45.00,SummerDesignDay
9,614833160.287439
16737,24051245.17516496
2,1, 7,21, 0, 4,45.00,60.00,SummerDesignDay
9,614489681.9127707
16737,25853274.21402916
2,1, 7,21, 0, 5, 0.00,15.00,SummerDesignDay
9,614187877.2211199
16737,27564219.455723558
2,1, 7,21, 0, 5,15.00,30.00,SummerDesignDay
9,613901358.6604149
16737,29348667.41727755
2,1, 7,21, 0, 5,30.00,45.00,SummerDesignDay
9,613633096.2281729
16737,30967064.068346653
2,1, 7,21, 0, 5,45.00,60.00,SummerDesignDay
9,601953439.7871577
16737,29812013.650488406
2,1, 7,21, 0, 6, 0.00,15.00,SummerDesignDay
9,601001864.5170723
16737,23252029.60168876
2,1, 7,21, 0, 6,15.00,30.00,SummerDesignDay
9,602352168.2287877
16737,20318101.83736115
2,1, 7,21, 0, 6,30.00,45.00,SummerDesignDay
9,604275126.2511569
16737,18485144.39034332
2,1, 7,21, 0, 6,45.00,60.00,SummerDesignDay
9,607421996.9039581
16737,16550967.722231917
2,1, 7,21, 0, 7, 0.00,15.00,SummerDesignDay
9,624364341.3265554
16737,8234650.874614973
2,1, 7,21, 0, 7,15.00,30.00,SummerDesignDay
9,635931922.4585001
16737,6267332.956855872
2,1, 7,21, 0, 7,30.00,45.00,SummerDesignDay
9,645522136.6430845
16737,4697739.887087129
2,1, 7,21, 0, 7,45.00,60.00,SummerDesignDay
9,654870246.4194572
16737,3014976.157406424
2,1, 7,21, 0, 8, 0.00,15.00,SummerDesignDay
9,666277571.5754238
16737,1411001.0164729105
2,1, 7,21, 0, 8,15.00,30.00,SummerDesignDay
9,673800417.3806182
16737,366524.2097686383
2,1, 7,21, 0, 8,30.00,45.00,SummerDesignDay
9,684297401.9622718
16737,152659.82206727416
2,1, 7,21, 0, 8,45.00,60.00,SummerDesignDay
9,690697120.0931435
16737,39832.2127292479
2,1, 7,21, 0, 9, 0.00,15.00,SummerDesignDay
9,697515123.3853494
16737,0.0
2,1, 7,21, 0, 9,15.00,30.00,SummerDesignDay
9,703669102.1715893
16737,0.0
2,1, 7,21, 0, 9,30.00,45.00,SummerDesignDay
9,706625485.4981644
16737,0.0
2,1, 7,21, 0, 9,45.00,60.00,SummerDesignDay
9,711825732.4003036
16737,0.0
2,1, 7,21, 0,10, 0.00,15.00,SummerDesignDay
9,711873933.3823136
16737,0.0
2,1, 7,21, 0,10,15.00,30.00,SummerDesignDay
9,712946189.9749027
16737,0.0
2,1, 7,21, 0,10,30.00,45.00,SummerDesignDay
9,712139796.6076121
16737,0.0
2,1, 7,21, 0,10,45.00,60.00,SummerDesignDay
9,708942127.1149691
16737,0.0
2,1, 7,21, 0,11, 0.00,15.00,SummerDesignDay
9,706786792.6696526
16737,0.0
2,1, 7,21, 0,11,15.00,30.00,SummerDesignDay
9,700466787.558745
16737,0.0
2,1, 7,21, 0,11,30.00,45.00,SummerDesignDay
9,697319729.6787733
16737,0.0
2,1, 7,21, 0,11,45.00,60.00,SummerDesignDay
9,692425311.7578462
16737,0.0
2,1, 7,21, 0,12, 0.00,15.00,SummerDesignDay
9,687393243.2745672
16737,0.0
2,1, 7,21, 0,12,15.00,30.00,SummerDesignDay
9,684778761.3641301
16737,0.0
2,1, 7,21, 0,12,30.00,45.00,SummerDesignDay
9,680340683.881046
16737,0.0
2,1, 7,21, 0,12,45.00,60.00,SummerDesignDay
9,681547384.4125097
16737,0.0
2,1, 7,21, 0,13, 0.00,15.00,SummerDesignDay
9,681031434.147248
16737,0.0
2,1, 7,21, 0,13,15.00,30.00,SummerDesignDay
9,683271431.0756187
16737,0.0
2,1, 7,21, 0,13,30.00,45.00,SummerDesignDay
9,685798635.1842372
16737,0.0
2,1, 7,21, 0,13,45.00,60.00,SummerDesignDay
9,692330023.8100553
16737,0.0
2,1, 7,21, 0,14, 0.00,15.00,SummerDesignDay
9,702597342.1890539
16737,0.0
2,1, 7,21, 0,14,15.00,30.00,SummerDesignDay
9,709494480.1566603
16737,0.0
2,1, 7,21, 0,14,30.00,45.00,SummerDesignDay
9,721896668.1895648
16737,0.0
2,1, 7,21, 0,14,45.00,60.00,SummerDesignDay
9,730728418.9307235
16737,0.0
2,1, 7,21, 0,15, 0.00,15.00,SummerDesignDay
9,740777377.1155328
16737,0.0
2,1, 7,21, 0,15,15.00,30.00,SummerDesignDay
9,750303077.8592161
16737,0.0
2,1, 7,21, 0,15,30.00,45.00,SummerDesignDay
9,757997352.4071909
16737,0.0
2,1, 7,21, 0,15,45.00,60.00,SummerDesignDay
9,768050797.551528
16737,0.0
2,1, 7,21, 0,16, 0.00,15.00,SummerDesignDay
9,772553502.0547823
16737,0.0
2,1, 7,21, 0,16,15.00,30.00,SummerDesignDay
9,778906031.3154422
16737,0.0
2,1, 7,21, 0,16,30.00,45.00,SummerDesignDay
9,782801940.26502
16737,0.0
2,1, 7,21, 0,16,45.00,60.00,SummerDesignDay
9,784976925.6947654
16737,0.0
2,1, 7,21, 0,17, 0.00,15.00,SummerDesignDay
9,787707723.6959999
16737,0.0
2,1, 7,21, 0,17,15.00,30.00,SummerDesignDay
9,785003104.1800873
16737,0.0
2,1, 7,21, 0,17,30.00,45.00,SummerDesignDay
9,783553557.8788979
16737,0.0
2,1, 7,21, 0,17,45.00,60.00,SummerDesignDay
9,777125946.5013992
16737,0.0
2,1, 7,21, 0,18, 0.00,15.00,SummerDesignDay
9,768722405.1028919
16737,0.0
2,1, 7,21, 0,18,15.00,30.00,SummerDesignDay
9,758464963.3710537
16737,0.0
2,1, 7,21, 0,18,30.00,45.00,SummerDesignDay
9,742073230.7560784
16737,0.0
2,1, 7,21, 0,18,45.00,60.00,SummerDesignDay
9,728030786.6802524
16737,0.0
2,1, 7,21, 0,19, 0.00,15.00,SummerDesignDay
9,708475428.1118722
16737,0.0
2,1, 7,21, 0,19,15.00,30.00,SummerDesignDay
9,687513903.8718011
16737,0.0
2,1, 7,21, 0,19,30.00,45.00,SummerDesignDay
9,669444798.3134328
16737,0.0
2,1, 7,21, 0,19,45.00,60.00,SummerDesignDay
9,670933652.2205117
16737,0.0
2,1, 7,21, 0,20, 0.00,15.00,SummerDesignDay
9,666493763.2171035
16737,0.0
2,1, 7,21, 0,20,15.00,30.00,SummerDesignDay
9,659734622.9999478
16737,0.0
2,1, 7,21, 0,20,30.00,45.00,SummerDesignDay
9,656684363.1029043
16737,0.0
2,1, 7,21, 0,20,45.00,60.00,SummerDesignDay
9,652815988.2847873
16737,0.0
2,1, 7,21, 0,21, 0.00,15.00,SummerDesignDay
9,649244944.1794114
16737,0.0
2,1, 7,21, 0,21,15.00,30.00,SummerDesignDay
9,648004364.6861832
16737,0.0
2,1, 7,21, 0,21,30.00,45.00,SummerDesignDay
9,644396743.1864059
16737,0.0
2,1, 7,21, 0,21,45.00,60.00,SummerDesignDay
9,645184218.9660869
16737,0.0
2,1, 7,21, 0,22, 0.00,15.00,SummerDesignDay
9,642804487.7196842
16737,0.0
2,1, 7,21, 0,22,15.00,30.00,SummerDesignDay
9,642027335.3086985
16737,0.0
2,1, 7,21, 0,22,30.00,45.00,SummerDesignDay
9,641251217.1142795
16737,0.0
2,1, 7,21, 0,22,45.00,60.00,SummerDesignDay
9,639010300.789515
16737,0.0
2,1, 7,21, 0,23, 0.00,15.00,SummerDesignDay
9,634460568.126495
16737,0.0
2,1, 7,21, 0,23,15.00,30.00,SummerDesignDay
9,630321085.9238203
16737,66386.95890165285
2,1, 7,21, 0,23,30.00,45.00,SummerDesignDay
9,630448197.5077008
16737,202465.47004919444
2,1, 7,21, 0,23,45.00,60.00,SummerDesignDay
9,627911256.5452805
16737,466412.28595743334
2,1, 7,21, 0,24, 0.00,15.00,SummerDesignDay
9,627250454.8625193
16737,755548.5992479955
2,1, 7,21, 0,24,15.00,30.00,SummerDesignDay
9,626501018.3727692
16737,1018842.7721724682
2,1, 7,21, 0,24,30.00,45.00,SummerDesignDay
9,624623012.4658264
16737,1285099.4096851202
2,1, 7,21, 0,24,45.00,60.00,SummerDesignDay
9,625248448.305168
16737,1611515.2695059534
1,MAXWELL AFB ANN CLG .4% CONDNS WB=>MDB 1 HVAC Sizing Pass 1,  32.38, -86.36,  -6.00,  52.00
2,1, 7,21, 0, 1, 0.00,15.00,SummerDesignDay
9,630457430.8165262
16737,19728953.9344934
2,1, 7,21, 0, 1,15.00,30.00,SummerDesignDay
9,628987913.3674375
16737,22389657.430782635
2,1, 7,21, 0, 1,30.00,45.00,SummerDesignDay
9,627565245.4320375
16737,24979768.142837
2,1, 7,21, 0, 1,45.00,60.00,SummerDesignDay
9,626186422.0911355
16737,27548922.481676575
2,1, 7,21, 0, 2, 0.00,15.00,SummerDesignDay
9,625132607.1705807
16737,30257718.60817537
2,1, 7,21, 0, 2,15.00,30.00,SummerDesignDay
9,624176507.0656787
16737,32739722.335603222
2,1, 7,21, 0, 2,30.00,45.00,SummerDesignDay
9,623243519.9296712
16737,35298117.65837025
2,1, 7,21, 0, 2,45.00,60.00,SummerDesignDay
9,622327771.0364943
16737,37571434.205556236
2,1, 7,21, 0, 3, 0.00,15.00,SummerDesignDay
9,621557544.7726977
16737,39940810.955337726
2,1, 7,21, 0, 3,15.00,30.00,SummerDesignDay
9,620827480.6762025
16737,42210729.708809845
2,1, 7,21, 0, 3,30.00,45.00,SummerDesignDay
9,620112788.7091148
16737,44448840.49164847
2,1, 7,21, 0, 3,45.00,60.00,SummerDesignDay
9,619409636.681908
16737,46627731.45207883
2,1, 7,21, 0, 4, 0.00,15.00,SummerDesignDay
9,618715931.9087527
16737,48743830.40035645
2,1, 7,21, 0, 4,15.00,30.00,SummerDesignDay
9,618031303.9016714
16737,51501633.33560678
2,1, 7,21, 0, 4,30.00,45.00,SummerDesignDay
9,617367246.5474728
16737,55383585.33531281
2,1, 7,21, 0, 4,45.00,60.00,SummerDesignDay
9,616734415.3846436
16737,59528101.39723356
2,1, 7,21, 0, 5, 0.00,15.00,SummerDesignDay
9,616248017.8345505
16737,64317066.99185496
2,1, 7,21, 0, 5,15.00,30.00,SummerDesignDay
9,615808212.1700758
16737,68699467.63016033
2,1, 7,21, 0, 5,30.00,45.00,SummerDesignDay
9,615377900.0861841
16737,73254951.49436462
2,1, 7,21, 0, 5,45.00,60.00,SummerDesignDay
9,603533079.5644805
16737,69151480.89500734
2,1, 7,21, 0, 6, 0.00,15.00,SummerDesignDay
9,586669551.0947733
16737,0.0
2,1, 7,21, 0, 6,15.00,30.00,SummerDesignDay
9,587973432.5418952
16737,0.0
2,1, 7,21, 0, 6,30.00,45.00,SummerDesignDay
9,589441879.4670411
16737,0.0
2,1, 7,21, 0, 6,45.00,60.00,SummerDesignDay
9,590930242.9098243
16737,0.0
2,1, 7,21, 0, 7, 0.00,15.00,SummerDesignDay
9,594920745.4341037
16737,0.0
2,1, 7,21, 0, 7,15.00,30.00,SummerDesignDay
9,638368869.7616199
16737,44595022.24103461
2,1, 7,21, 0, 7,30.00,45.00,SummerDesignDay
9,649269458.4500483
16737,24700369.354724474
2,1, 7,21, 0, 7,45.00,60.00,SummerDesignDay
9,654767024.3193058
16737,20206656.493011143
2,1, 7,21, 0, 8, 0.00,15.00,SummerDesignDay
9,665158467.3884546
16737,14164635.070914635
2,1, 7,21, 0, 8,15.00,30.00,SummerDesignDay
9,674213333.6699064
16737,10755734.167457543
2,1, 7,21, 0, 8,30.00,45.00,SummerDesignDay
9,686906105.5095394
16737,7447980.442337969
2,1, 7,21, 0, 8,45.00,60.00,SummerDesignDay
9,694466495.3366839
16737,5002318.993774651
2,1, 7,21, 0, 9, 0.00,15.00,SummerDesignDay
9,701612032.3510673
16737,2932359.8818962197
2,1, 7,21, 0, 9,15.00,30.00,SummerDesignDay
9,707300857.8247484
16737,1357030.393513146
2,1, 7,21, 0, 9,30.00,45.00,SummerDesignDay
9,710422960.1990807
16737,305820.8686620045
2,1, 7,21, 0, 9,45.00,60.00,SummerDesignDay
9,715434242.573358
16737,0.0
2,1, 7,21, 0,10, 0.00,15.00,SummerDesignDay
9,715401861.7973303
16737,0.0
2,1, 7,21, 0,10,15.00,30.00,SummerDesignDay
9,716948037.5323442
16737,0.0
2,1, 7,21, 0,10,30.00,45.00,SummerDesignDay
9,716097125.9020044
16737,0.0
2,1, 7,21, 0,10,45.00,60.00,SummerDesignDay
9,713498746.9733572
16737,0.0
2,1, 7,21, 0,11, 0.00,15.00,SummerDesignDay
9,711508733.1572636
16737,0.0
2,1, 7,21, 0,11,15.00,30.00,SummerDesignDay
9,705556776.3508025
16737,0.0
2,1, 7,21, 0,11,30.00,45.00,SummerDesignDay
9,702823960.7914286
16737,0.0
2,1, 7,21, 0,11,45.00,60.00,SummerDesignDay
9,697793349.5214036
16737,0.0
2,1, 7,21, 0,12, 0.00,15.00,SummerDesignDay
9,693200085.3209406
16737,0.0
2,1, 7,21, 0,12,15.00,30.00,SummerDesignDay
9,690485086.5295717
16737,0.0
2,1, 7,21, 0,12,30.00,45.00,SummerDesignDay
9,686210343.2260109
16737,0.0
2,1, 7,21, 0,12,45.00,60.00,SummerDesignDay
9,687204813.4364146
16737,0.0
2,1, 7,21, 0,13, 0.00,15.00,SummerDesignDay
9,685639738.914171
16737,0.0
2,1, 7,21, 0,13,15.00,30.00,SummerDesignDay
9,686847105.1462319
16737,0.0
2,1, 7,21, 0,13,30.00,45.00,SummerDesignDay
9,688996199.7029557
16737,0.0
2,1, 7,21, 0,13,45.00,60.00,SummerDesignDay
9,692268966.6541488
16737,0.0
2,1, 7,21, 0,14, 0.00,15.00,SummerDesignDay
9,699742106.0655842
16737,0.0
2,1, 7,21, 0,14,15.00,30.00,SummerDesignDay
9,708607760.2195914
16737,0.0
2,1, 7,21, 0,14,30.00,45.00,SummerDesignDay
9,721047740.4551455
16737,0.0
2,1, 7,21, 0,14,45.00,60.00,SummerDesignDay
9,730062485.3509889
16737,0.0
2,1, 7,21, 0,15, 0.00,15.00,SummerDesignDay
9,740002028.577111
16737,0.0
2,1, 7,21, 0,15,15.00,30.00,SummerDesignDay
9,748714385.8979937
16737,0.0
2,1, 7,21, 0,15,30.00,45.00,SummerDesignDay
9,756056087.509813
16737,0.0
2,1, 7,21, 0,15,45.00,60.00,SummerDesignDay
9,765406202.403822
16737,0.0
2,1, 7,21, 0,16, 0.00,15.00,SummerDesignDay
9,768504234.4521514
16737,0.0
2,1, 7,21, 0,16,15.00,30.00,SummerDesignDay
9,773860552.1516205
16737,0.0
2,1, 7,21, 0,16,30.00,45.00,SummerDesignDay
9,776388495.9862689
16737,0.0
2,1, 7,21, 0,16,45.00,60.00,SummerDesignDay
9,777747998.8350153
16737,0.0
2,1, 7,21, 0,17, 0.00,15.00,SummerDesignDay
9,779163721.8776232
16737,0.0
2,1, 7,21, 0,17,15.00,30.00,SummerDesignDay
9,775885408.2690984
16737,0.0
2,1, 7,21, 0,17,30.00,45.00,SummerDesignDay
9,774679223.1789709
16737,0.0
2,1, 7,21, 0,17,45.00,60.00,SummerDesignDay
9,768535915.5676216
16737,0.0
2,1, 7,21, 0,18, 0.00,15.00,SummerDesignDay
9,761442374.3079475
16737,0.0
2,1, 7,21, 0,18,15.00,30.00,SummerDesignDay
9,752475606.5790997
16737,0.0
2,1, 7,21, 0,18,30.00,45.00,SummerDesignDay
9,738436037.113734
16737,0.0
2,1, 7,21, 0,18,45.00,60.00,SummerDesignDay
9,727649023.2613059
16737,0.0
2,1, 7,21, 0,19, 0.00,15.00,SummerDesignDay
9,710938961.5234456
16737,0.0
2,1, 7,21, 0,19,15.00,30.00,SummerDesignDay
9,692943295.604598
16737,0.0
2,1, 7,21, 0,19,30.00,45.00,SummerDesignDay
9,676212109.806975
16737,0.0
2,1, 7,21, 0,19,45.00,60.00,SummerDesignDay
9,678201722.6170645
16737,0.0
2,1, 7,21, 0,20, 0.00,15.00,SummerDesignDay
9,674325111.999
16737,0.0
2,1, 7,21, 0,20,15.00,30.00,SummerDesignDay
9,668167060.418777
16737,0.0
2,1, 7,21, 0,20,30.00,45.00,SummerDesignDay
9,665866916.0781692
16737,0.0
2,1, 7,21, 0,20,45.00,60.00,SummerDesignDay
9,662680927.8197769
16737,0.0
2,1, 7,21, 0,21, 0.00,15.00,SummerDesignDay
9,660936730.0104502
16737,0.0
2,1, 7,21, 0,21,15.00,30.00,SummerDesignDay
9,660722035.6953377
16737,0.0
2,1, 7,21, 0,21,30.00,45.00,SummerDesignDay
9,657335498.6891897
16737,0.0
2,1, 7,21, 0,21,45.00,60.00,SummerDesignDay
9,658001289.3210454
16737,2889.1023157052437
2,1, 7,21, 0,22, 0.00,15.00,SummerDesignDay
9,655219281.1483246
16737,78000.89710135944
2,1, 7,21, 0,22,15.00,30.00,SummerDesignDay
9,654565693.2590692
16737,259014.65120414764
2,1, 7,21, 0,22,30.00,45.00,SummerDesignDay
9,653461932.298269
16737,578923.3002490983
2,1, 7,21, 0,22,45.00,60.00,SummerDesignDay
9,651391395.2197286
16737,863888.0588606327
2,1, 7,21, 0,23, 0.00,15.00,SummerDesignDay
9,646599117.1455436
16737,1675748.398284458
2,1, 7,21, 0,23,15.00,30.00,SummerDesignDay
9,642269073.1743466
16737,2676675.907841705
2,1, 7,21, 0,23,30.00,45.00,SummerDesignDay
9,642540763.7642701
16737,3639429.025169416
2,1, 7,21, 0,23,45.00,60.00,SummerDesignDay
9,639725152.6790208
16737,5348149.9393540975
2,1, 7,21, 0,24, 0.00,15.00,SummerDesignDay
9,638841135.6578888
16737,8009420.055013288
2,1, 7,21, 0,24,15.00,30.00,SummerDesignDay
9,637045543.9432316
16737,10719022.347310802
2,1, 7,21, 0,24,30.00,45.00,SummerDesignDay
9,634594441.455524
16737,13662946.483513214
2,1, 7,21, 0,24,45.00,60.00,SummerDesignDay
9,634276900.4484789
16737,16582936.511314787
1,MAXWELL AFB ANN CLG 1% CONDNS DB=>MWB 1 HVAC Sizing Pass 1,  32.38, -86.36,  -6.00,  52.00
2,1, 7,21, 0, 1, 0.00,15.00,SummerDesignDay
9,620614232.3804321
16737,5461162.790473399
2,1, 7,21, 0, 1,15.00,30.00,SummerDesignDay
9,619833200.1180881
16737,7131834.126731986
2,1, 7,21, 0, 1,30.00,45.00,SummerDesignDay
9,619099143.6846498
16737,8904360.101996675
2,1, 7,21, 0, 1,45.00,60.00,SummerDesignDay
9,618401394.6211
16737,10844887.91770158
2,1, 7,21, 0, 2, 0.00,15.00,SummerDesignDay
9,617858534.6128421
16737,12996944.356113356
2,1, 7,21, 0, 2,15.00,30.00,SummerDesignDay
9,617397800.4345162
16737,15287175.02283507
2,1, 7,21, 0, 2,30.00,45.00,SummerDesignDay
9,616952942.4658695
16737,17476403.929162983
2,1, 7,21, 0, 2,45.00,60.00,SummerDesignDay
9,616515330.7835243
16737,19608027.72430601
2,1, 7,21, 0, 3, 0.00,15.00,SummerDesignDay
9,616120293.2297126
16737,21673497.624171477
2,1, 7,21, 0, 3,15.00,30.00,SummerDesignDay
9,615741875.7339798
16737,23522517.61889317
2,1, 7,21, 0, 3,30.00,45.00,SummerDesignDay
9,615370357.7572787
16737,25545968.839381006
2,1, 7,21, 0, 3,45.00,60.00,SummerDesignDay
9,615007250.2793741
16737,27486097.784326848
2,1, 7,21, 0, 4, 0.00,15.00,SummerDesignDay
9,614656026.8719544
16737,29566341.15485721
2,1, 7,21, 0, 4,15.00,30.00,SummerDesignDay
9,614323380.871265
16737,31525903.64477102
2,1, 7,21, 0, 4,30.00,45.00,SummerDesignDay
9,613995078.3665866
16737,33459900.34149424
2,1, 7,21, 0, 4,45.00,60.00,SummerDesignDay
9,613670143.6363835
16737,35328508.27013992
2,1, 7,21, 0, 5, 0.00,15.00,SummerDesignDay
9,613383631.3942077
16737,36979814.46290941
2,1, 7,21, 0, 5,15.00,30.00,SummerDesignDay
9,613108688.4231188
16737,38630906.221858226
2,1, 7,21, 0, 5,30.00,45.00,SummerDesignDay
9,612838404.9683635
16737,40172111.05360145
2,1, 7,21, 0, 5,45.00,60.00,SummerDesignDay
9,601155536.9889086
16737,38833356.857752725
2,1, 7,21, 0, 6, 0.00,15.00,SummerDesignDay
9,600194219.10752
16737,32159823.816073604
2,1, 7,21, 0, 6,15.00,30.00,SummerDesignDay
9,601125822.1476315
16737,26262728.70656816
2,1, 7,21, 0, 6,30.00,45.00,SummerDesignDay
9,602902484.9291321
16737,23815147.70053322
2,1, 7,21, 0, 6,45.00,60.00,SummerDesignDay
9,604741257.3087384
16737,21890079.564303964
2,1, 7,21, 0, 7, 0.00,15.00,SummerDesignDay
9,620862729.5776224
16737,13023230.515452307
2,1, 7,21, 0, 7,15.00,30.00,SummerDesignDay
9,631782795.9352638
16737,10293380.984943016
2,1, 7,21, 0, 7,30.00,45.00,SummerDesignDay
9,640880172.777793
16737,7794111.621617176
2,1, 7,21, 0, 7,45.00,60.00,SummerDesignDay
9,650106445.5047208
16737,5613007.5820317175
2,1, 7,21, 0, 8, 0.00,15.00,SummerDesignDay
9,661220119.7441366
16737,3877110.0257163825
2,1, 7,21, 0, 8,15.00,30.00,SummerDesignDay
9,668486758.9516371
16737,2227362.842342012
2,1, 7,21, 0, 8,30.00,45.00,SummerDesignDay
9,678759118.6603829
16737,875312.8410839515
2,1, 7,21, 0, 8,45.00,60.00,SummerDesignDay
9,684934031.2617825
16737,226068.50306950722
2,1, 7,21, 0, 9, 0.00,15.00,SummerDesignDay
9,691619059.1676717
16737,48659.21043451012
2,1, 7,21, 0, 9,15.00,30.00,SummerDesignDay
9,697648849.7276573
16737,0.0
2,1, 7,21, 0, 9,30.00,45.00,SummerDesignDay
9,700531063.5330771
16737,0.0
2,1, 7,21, 0, 9,45.00,60.00,SummerDesignDay
9,705694797.1598707
16737,0.0
2,1, 7,21, 0,10, 0.00,15.00,SummerDesignDay
9,705749563.6503215
16737,0.0
2,1, 7,21, 0,10,15.00,30.00,SummerDesignDay
9,706869635.2003248
16737,0.0
2,1, 7,21, 0,10,30.00,45.00,SummerDesignDay
9,706149693.4273217
16737,0.0
2,1, 7,21, 0,10,45.00,60.00,SummerDesignDay
9,703071503.2812685
16737,0.0
2,1, 7,21, 0,11, 0.00,15.00,SummerDesignDay
9,701092042.3543193
16737,0.0
2,1, 7,21, 0,11,15.00,30.00,SummerDesignDay
9,694927820.2446594
16737,0.0
2,1, 7,21, 0,11,30.00,45.00,SummerDesignDay
9,691788592.5261236
16737,0.0
2,1, 7,21, 0,11,45.00,60.00,SummerDesignDay
9,687012242.883657
16737,0.0
2,1, 7,21, 0,12, 0.00,15.00,SummerDesignDay
9,682086513.8211352
16737,0.0
2,1, 7,21, 0,12,15.00,30.00,SummerDesignDay
9,679637153.2183508
16737,0.0
2,1, 7,21, 0,12,30.00,45.00,SummerDesignDay
9,675205206.15175
16737,0.0
2,1, 7,21, 0,12,45.00,60.00,SummerDesignDay
9,675941349.4246513
16737,0.0
2,1, 7,21, 0,13, 0.00,15.00,SummerDesignDay
9,674621126.3096353
16737,0.0
2,1, 7,21, 0,13,15.00,30.00,SummerDesignDay
9,676445705.5123461
16737,0.0
2,1, 7,21, 0,13,30.00,45.00,SummerDesignDay
9,678804597.055123
16737,0.0
2,1, 7,21, 0,13,45.00,60.00,SummerDesignDay
9,682676412.0520291
16737,0.0
2,1, 7,21, 0,14, 0.00,15.00,SummerDesignDay
9,693430781.3362479
16737,0.0
2,1, 7,21, 0,14,15.00,30.00,SummerDesignDay
9,699476583.1419696
16737,0.0
2,1, 7,21, 0,14,30.00,45.00,SummerDesignDay
9,711642488.0478394
16737,0.0
2,1, 7,21, 0,14,45.00,60.00,SummerDesignDay
9,720131061.124903
16737,0.0
2,1, 7,21, 0,15, 0.00,15.00,SummerDesignDay
9,729826264.2444096
16737,0.0
2,1, 7,21, 0,15,15.00,30.00,SummerDesignDay
9,738971945.5608094
16737,0.0
2,1, 7,21, 0,15,30.00,45.00,SummerDesignDay
9,746276632.1171569
16737,0.0
2,1, 7,21, 0,15,45.00,60.00,SummerDesignDay
9,756050561.5054573
16737,0.0
2,1, 7,21, 0,16, 0.00,15.00,SummerDesignDay
9,760463135.7239859
16737,0.0
2,1, 7,21, 0,16,15.00,30.00,SummerDesignDay
9,766847404.9921926
16737,0.0
2,1, 7,21, 0,16,30.00,45.00,SummerDesignDay
9,770912744.5320096
16737,0.0
2,1, 7,21, 0,16,45.00,60.00,SummerDesignDay
9,773161714.3280076
16737,0.0
2,1, 7,21, 0,17, 0.00,15.00,SummerDesignDay
9,775934686.4718627
16737,0.0
2,1, 7,21, 0,17,15.00,30.00,SummerDesignDay
9,773293806.5591092
16737,0.0
2,1, 7,21, 0,17,30.00,45.00,SummerDesignDay
9,772090942.6379571
16737,0.0
2,1, 7,21, 0,17,45.00,60.00,SummerDesignDay
9,765997441.6607878
16737,0.0
2,1, 7,21, 0,18, 0.00,15.00,SummerDesignDay
9,758019787.7757288
16737,0.0
2,1, 7,21, 0,18,15.00,30.00,SummerDesignDay
9,748447772.0090166
16737,0.0
2,1, 7,21, 0,18,30.00,45.00,SummerDesignDay
9,732831205.750772
16737,0.0
2,1, 7,21, 0,18,45.00,60.00,SummerDesignDay
9,719691283.0195781
16737,0.0
2,1, 7,21, 0,19, 0.00,15.00,SummerDesignDay
9,701104172.7946817
16737,0.0
2,1, 7,21, 0,19,15.00,30.00,SummerDesignDay
9,681958295.1775408
16737,0.0
2,1, 7,21, 0,19,30.00,45.00,SummerDesignDay
9,665279186.0927399
16737,0.0
2,1, 7,21, 0,19,45.00,60.00,SummerDesignDay
9,666985478.6488814
16737,0.0
2,1, 7,21, 0,20, 0.00,15.00,SummerDesignDay
9,662681796.352427
16737,0.0
2,1, 7,21, 0,20,15.00,30.00,SummerDesignDay
9,656189034.187797
16737,0.0
2,1, 7,21, 0,20,30.00,45.00,SummerDesignDay
9,653349383.0278374
16737,0.0
2,1, 7,21, 0,20,45.00,60.00,SummerDesignDay
9,649868004.8978406
16737,0.0
2,1, 7,21, 0,21, 0.00,15.00,SummerDesignDay
9,646480838.9056748
16737,0.0
2,1, 7,21, 0,21,15.00,30.00,SummerDesignDay
9,646220319.8757628
16737,0.0
2,1, 7,21, 0,21,30.00,45.00,SummerDesignDay
9,642929732.5165281
16737,0.0
2,1, 7,21, 0,21,45.00,60.00,SummerDesignDay
9,643634244.5255096
16737,0.0
2,1, 7,21, 0,22, 0.00,15.00,SummerDesignDay
9,641201402.8775527
16737,0.0
2,1, 7,21, 0,22,15.00,30.00,SummerDesignDay
9,640400255.0517594
16737,0.0
2,1, 7,21, 0,22,30.00,45.00,SummerDesignDay
9,639616945.8217895
16737,0.0
2,1, 7,21, 0,22,45.00,60.00,SummerDesignDay
9,637371888.5812511
16737,0.0
2,1, 7,21, 0,23, 0.00,15.00,SummerDesignDay
9,632894919.7343363
16737,240745.54782059544
2,1, 7,21, 0,23,15.00,30.00,SummerDesignDay
9,628787382.7315761
16737,647788.0239873825
2,1, 7,21, 0,23,30.00,45.00,SummerDesignDay
9,628944807.7132173
16737,856121.4171066212
2,1, 7,21, 0,23,45.00,60.00,SummerDesignDay
9,626422445.5598764
16737,1175980.7541893641
2,1, 7,21, 0,24, 0.00,15.00,SummerDesignDay
9,625767591.1545253
16737,1483289.9065597688
2,1, 7,21, 0,24,15.00,30.00,SummerDesignDay
9,625023656.1071515
16737,1889889.0963997021
2,1, 7,21, 0,24,30.00,45.00,SummerDesignDay
9,623151512.930053
16737,3010380.4763807105
2,1, 7,21, 0,24,45.00,60.00,SummerDesignDay
9,623796508.4342083
16737,3925036.519039113
1,MAXWELL AFB ANN CLG 2% CONDNS DP=>MDB 1 HVAC Sizing Pass 1,  32.38, -86.36,  -6.00,  52.00
2,1, 7,21, 0, 1, 0.00,15.00,SummerDesignDay
9,602496077.2999487
16737,56869162.47165484
2,1, 7,21, 0, 1,15.00,30.00,SummerDesignDay
9,601411477.069938
16737,60912896.97407693
2,1, 7,21, 0, 1,30.00,45.00,SummerDesignDay
9,600379490.0664513
16737,66366287.83951359
2,1, 7,21, 0, 1,45.00,60.00,SummerDesignDay
9,599410081.0547178
16737,73215975.45846054
2,1, 7,21, 0, 2, 0.00,15.00,SummerDesignDay
9,598678078.8340014
16737,79487003.29931517
2,1, 7,21, 0, 2,15.00,30.00,SummerDesignDay
9,598031712.107353
16737,85867633.62229307
2,1, 7,21, 0, 2,30.00,45.00,SummerDesignDay
9,597405213.6698314
16737,92161293.65065643
2,1, 7,21, 0, 2,45.00,60.00,SummerDesignDay
9,596794519.2910166
16737,97796489.25837365
2,1, 7,21, 0, 3, 0.00,15.00,SummerDesignDay
9,596277255.7317927
16737,103300937.76768926
2,1, 7,21, 0, 3,15.00,30.00,SummerDesignDay
9,595798869.5318477
16737,108480239.71563442
2,1, 7,21, 0, 3,30.00,45.00,SummerDesignDay
9,595330293.7415028
16737,113233437.91606441
2,1, 7,21, 0, 3,45.00,60.00,SummerDesignDay
9,594867052.0733656
16737,117795224.13080716
2,1, 7,21, 0, 4, 0.00,15.00,SummerDesignDay
9,594409170.751013
16737,122294622.23127708
2,1, 7,21, 0, 4,15.00,30.00,SummerDesignDay
9,593958411.7096499
16737,126342703.07321155
2,1, 7,21, 0, 4,30.00,45.00,SummerDesignDay
9,593511124.3658946
16737,130329832.90633117
2,1, 7,21, 0, 4,45.00,60.00,SummerDesignDay
9,593068257.825921
16737,134197477.5262781
2,1, 7,21, 0, 5, 0.00,15.00,SummerDesignDay
9,592709135.3107748
16737,137716147.67563874
2,1, 7,21, 0, 5,15.00,30.00,SummerDesignDay
9,592383603.9235157
16737,141094257.32511368
2,1, 7,21, 0, 5,30.00,45.00,SummerDesignDay
9,592062136.3217549
16737,144407967.0375647
2,1, 7,21, 0, 5,45.00,60.00,SummerDesignDay
9,580177009.8867756
16737,139471459.3827629
2,1, 7,21, 0, 6, 0.00,15.00,SummerDesignDay
9,564973469.8899418
16737,0.0
2,1, 7,21, 0, 6,15.00,30.00,SummerDesignDay
9,565616177.0449599
16737,0.0
2,1, 7,21, 0, 6,30.00,45.00,SummerDesignDay
9,566857843.4786386
16737,0.0
2,1, 7,21, 0, 6,45.00,60.00,SummerDesignDay
9,567912081.4107788
16737,0.0
2,1, 7,21, 0, 7, 0.00,15.00,SummerDesignDay
9,571253176.3684756
16737,0.0
2,1, 7,21, 0, 7,15.00,30.00,SummerDesignDay
9,602357772.444425
16737,133982335.28915633
2,1, 7,21, 0, 7,30.00,45.00,SummerDesignDay
9,608687622.9037849
16737,61537717.1528555
2,1, 7,21, 0, 7,45.00,60.00,SummerDesignDay
9,612372461.2812274
16737,52351384.98258838
2,1, 7,21, 0, 8, 0.00,15.00,SummerDesignDay
9,621489193.9862171
16737,47813344.94062799
2,1, 7,21, 0, 8,15.00,30.00,SummerDesignDay
9,628432448.7764169
16737,42765714.387259625
2,1, 7,21, 0, 8,30.00,45.00,SummerDesignDay
9,638712156.2272459
16737,36603052.26078967
2,1, 7,21, 0, 8,45.00,60.00,SummerDesignDay
9,645435146.50509
16737,31198401.75710835
2,1, 7,21, 0, 9, 0.00,15.00,SummerDesignDay
9,653371452.5786843
16737,24613997.362192128
2,1, 7,21, 0, 9,15.00,30.00,SummerDesignDay
9,660337414.2362494
16737,18244258.08027534
2,1, 7,21, 0, 9,30.00,45.00,SummerDesignDay
9,665208688.2519903
16737,12331503.623469584
2,1, 7,21, 0, 9,45.00,60.00,SummerDesignDay
9,672168476.5564451
16737,8242521.851877114
2,1, 7,21, 0,10, 0.00,15.00,SummerDesignDay
9,674188930.2124225
16737,4696037.383373446
2,1, 7,21, 0,10,15.00,30.00,SummerDesignDay
9,678204495.6769843
16737,2875230.0741183893
2,1, 7,21, 0,10,30.00,45.00,SummerDesignDay
9,679895426.7132206
16737,1173569.1511524483
2,1, 7,21, 0,10,45.00,60.00,SummerDesignDay
9,679385471.3405789
16737,66813.54877629042
2,1, 7,21, 0,11, 0.00,15.00,SummerDesignDay
9,678158991.7354428
16737,0.0
2,1, 7,21, 0,11,15.00,30.00,SummerDesignDay
9,672905252.0031364
16737,0.0
2,1, 7,21, 0,11,30.00,45.00,SummerDesignDay
9,670881798.3619289
16737,0.0
2,1, 7,21, 0,11,45.00,60.00,SummerDesignDay
9,666418735.7273719
16737,0.0
2,1, 7,21, 0,12, 0.00,15.00,SummerDesignDay
9,662608359.570139
16737,0.0
2,1, 7,21, 0,12,15.00,30.00,SummerDesignDay
9,660277671.4268351
16737,0.0
2,1, 7,21, 0,12,30.00,45.00,SummerDesignDay
9,656415870.7417117
16737,0.0
2,1, 7,21, 0,12,45.00,60.00,SummerDesignDay
9,657411378.3241954
16737,0.0
2,1, 7,21, 0,13, 0.00,15.00,SummerDesignDay
9,655441267.2795185
16737,0.0
2,1, 7,21, 0,13,15.00,30.00,SummerDesignDay
9,656389262.9658765
16737,0.0
2,1, 7,21, 0,13,30.00,45.00,SummerDesignDay
9,656684110.4654398
16737,0.0
2,1, 7,21, 0,13,45.00,60.00,SummerDesignDay
9,657156368.8840549
16737,0.0
2,1, 7,21, 0,14, 0.00,15.00,SummerDesignDay
9,659354427.3963964
16737,0.0
2,1, 7,21, 0,14,15.00,30.00,SummerDesignDay
9,659943433.5051112
16737,0.0
2,1, 7,21, 0,14,30.00,45.00,SummerDesignDay
9,670649371.8934817
16737,0.0
2,1, 7,21, 0,14,45.00,60.00,SummerDesignDay
9,676893711.5798298
16737,0.0
2,1, 7,21, 0,15, 0.00,15.00,SummerDesignDay
9,685649591.1036974
16737,0.0
2,1, 7,21, 0,15,15.00,30.00,SummerDesignDay
9,693535909.4012693
16737,0.0
2,1, 7,21, 0,15,30.00,45.00,SummerDesignDay
9,700015072.9132352
16737,0.0
2,1, 7,21, 0,15,45.00,60.00,SummerDesignDay
9,708393430.2500005
16737,0.0
2,1, 7,21, 0,16, 0.00,15.00,SummerDesignDay
9,711603303.0086324
16737,0.0
2,1, 7,21, 0,16,15.00,30.00,SummerDesignDay
9,717297774.4626949
16737,0.0
2,1, 7,21, 0,16,30.00,45.00,SummerDesignDay
9,720414390.9502274
16737,0.0
2,1, 7,21, 0,16,45.00,60.00,SummerDesignDay
9,722676380.510244
16737,0.0
2,1, 7,21, 0,17, 0.00,15.00,SummerDesignDay
9,726196919.4795369
16737,0.0
2,1, 7,21, 0,17,15.00,30.00,SummerDesignDay
9,725527467.3010367
16737,0.0
2,1, 7,21, 0,17,30.00,45.00,SummerDesignDay
9,726674335.6927203
16737,0.0
2,1, 7,21, 0,17,45.00,60.00,SummerDesignDay
9,722976612.9261874
16737,0.0
2,1, 7,21, 0,18, 0.00,15.00,SummerDesignDay
9,718556322.0110279
16737,0.0
2,1, 7,21, 0,18,15.00,30.00,SummerDesignDay
9,712328084.4949158
16737,0.0
2,1, 7,21, 0,18,30.00,45.00,SummerDesignDay
9,701282436.6988077
16737,0.0
2,1, 7,21, 0,18,45.00,60.00,SummerDesignDay
9,692203840.5544006
16737,0.0