Program Version,EnergyPlus, Version 23.2.0-7636e6b3e9, YMD=2024.01.24 11:14
1,5,Environment Title[],Latitude[deg],Longitude[deg],Time Zone[],Elevation[m]
2,8,Day of Simulation[],Month[],Day of Month[],DST Indicator[1=yes 0=no],Hour[],StartMinute[],EndMinute[],DayType
3,5,Cumulative Day of Simulation[],Month[],Day of Month[],DST Indicator[1=yes 0=no],DayType  ! When Daily Report Variables Requested
4,2,Cumulative Days of Simulation[],Month[]  ! When Monthly Report Variables Requested
5,1,Cumulative Days of Simulation[] ! When Run Period Report Variables Requested
6,1,Calendar Year of Simulation[] ! When Annual Report Variables Requested
8,1,Electricity:Facility [J] !TimeStep
16622,1,NaturalGas:Facility [J] !TimeStep
End of Data Dictionary
1,MAXWELL AFB ANN CLG .4% CONDNS DB=>MWB 1 HVAC Sizing Pass 1,  32.38, -86.36,  -6.00,  52.00
2,1, 7,21, 0, 1, 0.00,15.00,SummerDesignDay
8,884285173.7240024
16622,0.0
2,1, 7,21, 0, 1,15.00,30.00,SummerDesignDay
8,883570333.1738429
16622,0.0
2,1, 7,21, 0, 1,30.00,45.00,SummerDesignDay
8,882869913.5518271
16622,0.0
2,1, 7,21, 0, 1,45.00,60.00,SummerDesignDay
8,882211254.9156702
16622,0.0
2,1, 7,21, 0, 2, 0.00,15.00,SummerDesignDay
8,881691147.3753159
16622,0.0
2,1, 7,21, 0, 2,15.00,30.00,SummerDesignDay
8,881211058.1787627
16622,0.0
2,1, 7,21, 0, 2,30.00,45.00,SummerDesignDay
8,880744808.6592458
16622,0.0
2,1, 7,21, 0, 2,45.00,60.00,SummerDesignDay
8,880286116.2002047
16622,0.0
2,1, 7,21, 0, 3, 0.00,15.00,SummerDesignDay
8,879888043.2020073
16622,0.0
2,1, 7,21, 0, 3,15.00,30.00,SummerDesignDay
8,879508649.7651055
16622,0.0
2,1, 7,21, 0, 3,30.00,45.00,SummerDesignDay
8,879137368.5903391
16622,0.0
2,1, 7,21, 0, 3,45.00,60.00,SummerDesignDay
8,878771299.3844966
16622,0.0
2,1, 7,21, 0, 4, 0.00,15.00,SummerDesignDay
8,878409535.6373874
16622,0.0
2,1, 7,21, 0, 4,15.00,30.00,SummerDesignDay
8,878051953.0275106
16622,0.0
2,1, 7,21, 0, 4,30.00,45.00,SummerDesignDay
8,877698317.461194
16622,0.0
2,1, 7,21, 0, 4,45.00,60.00,SummerDesignDay
8,877348130.4089638
16622,0.0
2,1, 7,21, 0, 5, 0.00,15.00,SummerDesignDay
8,877054724.2413386
16622,0.0
2,1, 7,21, 0, 5,15.00,30.00,SummerDesignDay
8,876776874.454721
16622,0.0
2,1, 7,21, 0, 5,30.00,45.00,SummerDesignDay
8,876504351.6424195
16622,0.0
2,1, 7,21, 0, 5,45.00,60.00,SummerDesignDay
8,864819973.2271993
16622,0.0
2,1, 7,21, 0, 6, 0.00,15.00,SummerDesignDay
8,864093887.4499179
16622,0.0
2,1, 7,21, 0, 6,15.00,30.00,SummerDesignDay
8,865338715.6867214
16622,0.0
2,1, 7,21, 0, 6,30.00,45.00,SummerDesignDay
8,866791179.7576503
16622,0.0
2,1, 7,21, 0, 6,45.00,60.00,SummerDesignDay
8,868168891.6060526
16622,0.0
2,1, 7,21, 0, 7, 0.00,15.00,SummerDesignDay
8,951495126.7257006
16622,0.0
2,1, 7,21, 0, 7,15.00,30.00,SummerDesignDay
8,962147792.6278797
16622,0.0
2,1, 7,21, 0, 7,30.00,45.00,SummerDesignDay
8,963700151.8455586
16622,0.0
2,1, 7,21, 0, 7,45.00,60.00,SummerDesignDay
8,969441988.5908694
16622,0.0
2,1, 7,21, 0, 8, 0.00,15.00,SummerDesignDay
8,978884278.2011573
16622,0.0
2,1, 7,21, 0, 8,15.00,30.00,SummerDesignDay
8,985687694.4348265
16622,0.0
2,1, 7,21, 0, 8,30.00,45.00,SummerDesignDay
8,995570544.3539385
16622,0.0
2,1, 7,21, 0, 8,45.00,60.00,SummerDesignDay
8,1001253018.1998357
16622,0.0
2,1, 7,21, 0, 9, 0.00,15.00,SummerDesignDay
8,1007814693.0119522
16622,0.0
2,1, 7,21, 0, 9,15.00,30.00,SummerDesignDay
8,1013748048.0934268
16622,0.0
2,1, 7,21, 0, 9,30.00,45.00,SummerDesignDay
8,1016920450.5086577
16622,0.0
2,1, 7,21, 0, 9,45.00,60.00,SummerDesignDay
8,1022411910.4886916
16622,0.0
2,1, 7,21, 0,10, 0.00,15.00,SummerDesignDay
8,1022968314.0902387
16622,0.0
2,1, 7,21, 0,10,15.00,30.00,SummerDesignDay
8,1025116138.0076013
16622,0.0
2,1, 7,21, 0,10,30.00,45.00,SummerDesignDay
8,1025971438.4276155
16622,0.0
2,1, 7,21, 0,10,45.00,60.00,SummerDesignDay
8,1025537696.6341963
16622,0.0
2,1, 7,21, 0,11, 0.00,15.00,SummerDesignDay
8,1025862303.3885231
16622,0.0
2,1, 7,21, 0,11,15.00,30.00,SummerDesignDay
8,1022366243.056213
16622,0.0
2,1, 7,21, 0,11,30.00,45.00,SummerDesignDay
8,1022038272.8860976
16622,0.0
2,1, 7,21, 0,11,45.00,60.00,SummerDesignDay
8,1019754439.1646439
16622,0.0
2,1, 7,21, 0,12, 0.00,15.00,SummerDesignDay
8,1016765219.3393197
16622,0.0
2,1, 7,21, 0,12,15.00,30.00,SummerDesignDay
8,1015697678.1679969
16622,0.0
2,1, 7,21, 0,12,30.00,45.00,SummerDesignDay
8,1012920270.8243102
16622,0.0
2,1, 7,21, 0,12,45.00,60.00,SummerDesignDay
8,1016153733.7987831
16622,0.0
2,1, 7,21, 0,13, 0.00,15.00,SummerDesignDay
8,1018523086.3500363
16622,0.0
2,1, 7,21, 0,13,15.00,30.00,SummerDesignDay
8,1024764616.7324883
16622,0.0
2,1, 7,21, 0,13,30.00,45.00,SummerDesignDay
8,1031750896.5632577
16622,0.0
2,1, 7,21, 0,13,45.00,60.00,SummerDesignDay
8,1039064133.6002033
16622,0.0
2,1, 7,21, 0,14, 0.00,15.00,SummerDesignDay
8,1048495281.3046001
16622,0.0
2,1, 7,21, 0,14,15.00,30.00,SummerDesignDay
8,1055231424.6909062
16622,0.0
2,1, 7,21, 0,14,30.00,45.00,SummerDesignDay
8,1066645197.6437457
16622,0.0
2,1, 7,21, 0,14,45.00,60.00,SummerDesignDay
8,1073961152.947103
16622,0.0
2,1, 7,21, 0,15, 0.00,15.00,SummerDesignDay
8,1082246130.4547832
16622,0.0
2,1, 7,21, 0,15,15.00,30.00,SummerDesignDay
8,1089637602.8445275
16622,0.0
2,1, 7,21, 0,15,30.00,45.00,SummerDesignDay
8,1095422370.311321
16622,0.0
2,1, 7,21, 0,15,45.00,60.00,SummerDesignDay
8,1103609419.2147944
16622,0.0
2,1, 7,21, 0,16, 0.00,15.00,SummerDesignDay
8,1106421185.4248288
16622,0.0
2,1, 7,21, 0,16,15.00,30.00,SummerDesignDay
8,1110731667.0068343
16622,0.0
2,1, 7,21, 0,16,30.00,45.00,SummerDesignDay
8,1112066934.4568102
16622,0.0
2,1, 7,21, 0,16,45.00,60.00,SummerDesignDay
8,1112218357.896335
16622,0.0
2,1, 7,21, 0,17, 0.00,15.00,SummerDesignDay
8,1112901849.278951
16622,0.0
2,1, 7,21, 0,17,15.00,30.00,SummerDesignDay
8,1108819903.1912167
16622,0.0
2,1, 7,21, 0,17,30.00,45.00,SummerDesignDay
8,1106660458.0532167
16622,0.0
2,1, 7,21, 0,17,45.00,60.00,SummerDesignDay
8,1100047840.4565938
16622,0.0
2,1, 7,21, 0,18, 0.00,15.00,SummerDesignDay
8,1092079242.161581
16622,0.0
2,1, 7,21, 0,18,15.00,30.00,SummerDesignDay
8,1080839741.501181
16622,0.0
2,1, 7,21, 0,18,30.00,45.00,SummerDesignDay
8,1064026075.1810043
16622,0.0
2,1, 7,21, 0,18,45.00,60.00,SummerDesignDay
8,1050043077.3805865
16622,0.0
2,1, 7,21, 0,19, 0.00,15.00,SummerDesignDay
8,1029587318.4875331
16622,0.0
2,1, 7,21, 0,19,15.00,30.00,SummerDesignDay
8,1006635008.1051502
16622,0.0
2,1, 7,21, 0,19,30.00,45.00,SummerDesignDay
8,985332186.0657617
16622,0.0
2,1, 7,21, 0,19,45.00,60.00,SummerDesignDay
8,983982218.9080709
16622,0.0
2,1, 7,21, 0,20, 0.00,15.00,SummerDesignDay
8,977530949.8896656
16622,0.0
2,1, 7,21, 0,20,15.00,30.00,SummerDesignDay
8,968735508.223128
16622,0.0
2,1, 7,21, 0,20,30.00,45.00,SummerDesignDay
8,963590009.5052139
16622,0.0
2,1, 7,21, 0,20,45.00,60.00,SummerDesignDay
8,957413904.4987094
16622,0.0
2,1, 7,21, 0,21, 0.00,15.00,SummerDesignDay
8,952207802.1194427
16622,0.0
2,1, 7,21, 0,21,15.00,30.00,SummerDesignDay
8,949581619.2486479
16622,0.0
2,1, 7,21, 0,21,30.00,45.00,SummerDesignDay
8,944072649.4369998
16622,0.0
2,1, 7,21, 0,21,45.00,60.00,SummerDesignDay
8,942998145.533015
16622,0.0
2,1, 7,21, 0,22, 0.00,15.00,SummerDesignDay
8,938906797.0800697
16622,0.0
2,1, 7,21, 0,22,15.00,30.00,SummerDesignDay
8,936908051.3561553
16622,0.0
2,1, 7,21, 0,22,30.00,45.00,SummerDesignDay
8,935221851.015971
16622,0.0
2,1, 7,21, 0,22,45.00,60.00,SummerDesignDay
8,932811024.2855674
16622,0.0
2,1, 7,21, 0,23, 0.00,15.00,SummerDesignDay
8,893022371.3655412
16622,0.0
2,1, 7,21, 0,23,15.00,30.00,SummerDesignDay
8,889993676.0363835
16622,0.0
2,1, 7,21, 0,23,30.00,45.00,SummerDesignDay
8,890990320.0310977
16622,0.0
2,1, 7,21, 0,23,45.00,60.00,SummerDesignDay
8,888833945.3379208
16622,0.0
2,1, 7,21, 0,24, 0.00,15.00,SummerDesignDay
8,888476334.1511906
16622,0.0
2,1, 7,21, 0,24,15.00,30.00,SummerDesignDay
8,887834921.3599938
16622,0.0
2,1, 7,21, 0,24,30.00,45.00,SummerDesignDay
8,886272829.691076
16622,0.0
2,1, 7,21, 0,24,45.00,60.00,SummerDesignDay
8,887023974.3679761
16622,0.0
1,MAXWELL AFB ANN CLG .4% CONDNS WB=>MDB 1 HVAC Sizing Pass 1,  32.38, -86.36,  -6.00,  52.00
2,1, 7,21, 0, 1, 0.00,15.00,SummerDesignDay
8,902066110.8985112
16622,0.0
2,1, 7,21, 0, 1,15.00,30.00,SummerDesignDay
8,899940727.1815678
16622,0.0
2,1, 7,21, 0, 1,30.00,45.00,SummerDesignDay
8,897870741.1377385
16622,0.0
2,1, 7,21, 0, 1,45.00,60.00,SummerDesignDay
8,895877838.7994064
16622,0.0
2,1, 7,21, 0, 2, 0.00,15.00,SummerDesignDay
8,894372097.456562
16622,0.0
2,1, 7,21, 0, 2,15.00,30.00,SummerDesignDay
8,892979342.1723555
16622,0.0
2,1, 7,21, 0, 2,30.00,45.00,SummerDesignDay
8,891635026.4797554
16622,0.0
2,1, 7,21, 0, 2,45.00,60.00,SummerDesignDay
8,890322169.2634994
16622,0.0
2,1, 7,21, 0, 3, 0.00,15.00,SummerDesignDay
8,889237578.5059559
16622,0.0
2,1, 7,21, 0, 3,15.00,30.00,SummerDesignDay
8,888209240.9714191
16622,0.0
2,1, 7,21, 0, 3,30.00,45.00,SummerDesignDay
8,887206887.3005219
16622,0.0
2,1, 7,21, 0, 3,45.00,60.00,SummerDesignDay
8,886222380.7866353
16622,0.0
2,1, 7,21, 0, 4, 0.00,15.00,SummerDesignDay
8,885250976.5199349
16622,0.0
2,1, 7,21, 0, 4,15.00,30.00,SummerDesignDay
8,884290720.8554269
16622,0.0
2,1, 7,21, 0, 4,30.00,45.00,SummerDesignDay
8,883340748.3969378
16622,0.0
2,1, 7,21, 0, 4,45.00,60.00,SummerDesignDay
8,882400635.3229858
16622,0.0
2,1, 7,21, 0, 5, 0.00,15.00,SummerDesignDay
8,881663162.6428511
16622,0.0
2,1, 7,21, 0, 5,15.00,30.00,SummerDesignDay
8,880973661.5361762
16622,0.0
2,1, 7,21, 0, 5,30.00,45.00,SummerDesignDay
8,880302734.9717047
16622,0.0
2,1, 7,21, 0, 5,45.00,60.00,SummerDesignDay
8,868222278.7734977
16622,0.0
2,1, 7,21, 0, 6, 0.00,15.00,SummerDesignDay
8,867639533.3580672
16622,0.0
2,1, 7,21, 0, 6,15.00,30.00,SummerDesignDay
8,869178206.8413097
16622,0.0
2,1, 7,21, 0, 6,30.00,45.00,SummerDesignDay
8,870959310.7639922
16622,0.0
2,1, 7,21, 0, 6,45.00,60.00,SummerDesignDay
8,872694024.5961245
16622,0.0
2,1, 7,21, 0, 7, 0.00,15.00,SummerDesignDay
8,934475685.0340713
16622,0.0
2,1, 7,21, 0, 7,15.00,30.00,SummerDesignDay
8,945305289.9750893
16622,0.0
2,1, 7,21, 0, 7,30.00,45.00,SummerDesignDay
8,948471695.2903874
16622,0.0
2,1, 7,21, 0, 7,45.00,60.00,SummerDesignDay
8,959324247.6355478
16622,0.0
2,1, 7,21, 0, 8, 0.00,15.00,SummerDesignDay
8,973339687.3962586
16622,0.0
2,1, 7,21, 0, 8,15.00,30.00,SummerDesignDay
8,984946244.2937001
16622,0.0
2,1, 7,21, 0, 8,30.00,45.00,SummerDesignDay
8,999800486.6555835
16622,0.0
2,1, 7,21, 0, 8,45.00,60.00,SummerDesignDay
8,1009223126.1956093
16622,0.0
2,1, 7,21, 0, 9, 0.00,15.00,SummerDesignDay
8,1017194071.2566917
16622,0.0
2,1, 7,21, 0, 9,15.00,30.00,SummerDesignDay
8,1023750040.3659651
16622,0.0
2,1, 7,21, 0, 9,30.00,45.00,SummerDesignDay
8,1027459097.1640762
16622,0.0
2,1, 7,21, 0, 9,45.00,60.00,SummerDesignDay
8,1033279916.6326956
16622,0.0
2,1, 7,21, 0,10, 0.00,15.00,SummerDesignDay
8,1034133121.8874732
16622,0.0
2,1, 7,21, 0,10,15.00,30.00,SummerDesignDay
8,1037177259.4320378
16622,0.0
2,1, 7,21, 0,10,30.00,45.00,SummerDesignDay
8,1038654625.6684346
16622,0.0
2,1, 7,21, 0,10,45.00,60.00,SummerDesignDay
8,1038449822.3973001
16622,0.0
2,1, 7,21, 0,11, 0.00,15.00,SummerDesignDay
8,1038778452.4138297
16622,0.0
2,1, 7,21, 0,11,15.00,30.00,SummerDesignDay
8,1035241944.7918005
16622,0.0
2,1, 7,21, 0,11,30.00,45.00,SummerDesignDay
8,1034889824.6094515
16622,0.0
2,1, 7,21, 0,11,45.00,60.00,SummerDesignDay
8,1032305364.6087132
16622,0.0
2,1, 7,21, 0,12, 0.00,15.00,SummerDesignDay
8,1029650724.8227991
16622,0.0
2,1, 7,21, 0,12,15.00,30.00,SummerDesignDay
8,1028817071.080022
16622,0.0
2,1, 7,21, 0,12,30.00,45.00,SummerDesignDay
8,1026389126.9921865
16622,0.0
2,1, 7,21, 0,12,45.00,60.00,SummerDesignDay
8,1029413972.3282422
16622,0.0
2,1, 7,21, 0,13, 0.00,15.00,SummerDesignDay
8,1030382872.1645813
16622,0.0
2,1, 7,21, 0,13,15.00,30.00,SummerDesignDay
8,1034777245.665984
16622,0.0
2,1, 7,21, 0,13,30.00,45.00,SummerDesignDay
8,1043325798.6255006
16622,0.0
2,1, 7,21, 0,13,45.00,60.00,SummerDesignDay
8,1052903170.5972178
16622,0.0
2,1, 7,21, 0,14, 0.00,15.00,SummerDesignDay
8,1063576168.7051314
16622,0.0
2,1, 7,21, 0,14,15.00,30.00,SummerDesignDay
8,1071629957.459282
16622,0.0
2,1, 7,21, 0,14,30.00,45.00,SummerDesignDay
8,1084780467.703145
16622,0.0
2,1, 7,21, 0,14,45.00,60.00,SummerDesignDay
8,1070018154.0758733
16622,0.0
2,1, 7,21, 0,15, 0.00,15.00,SummerDesignDay
8,1077360118.607444
16622,0.0
2,1, 7,21, 0,15,15.00,30.00,SummerDesignDay
8,1083672325.0835366
16622,0.0
2,1, 7,21, 0,15,30.00,45.00,SummerDesignDay
8,1088523512.0732944
16622,0.0
2,1, 7,21, 0,15,45.00,60.00,SummerDesignDay
8,1095564095.4831994
16622,0.0
2,1, 7,21, 0,16, 0.00,15.00,SummerDesignDay
8,1096867084.4208229
16622,0.0
2,1, 7,21, 0,16,15.00,30.00,SummerDesignDay
8,1100639505.7496297
16622,0.0
2,1, 7,21, 0,16,30.00,45.00,SummerDesignDay
8,1101885553.9711812
16622,0.0
2,1, 7,21, 0,16,45.00,60.00,SummerDesignDay
8,1124927419.7588432
16622,0.0
2,1, 7,21, 0,17, 0.00,15.00,SummerDesignDay
8,1123056007.8527448
16622,0.0
2,1, 7,21, 0,17,15.00,30.00,SummerDesignDay
8,1117572040.1179597
16622,0.0
2,1, 7,21, 0,17,30.00,45.00,SummerDesignDay
8,1114407207.744539
16622,0.0
2,1, 7,21, 0,17,45.00,60.00,SummerDesignDay
8,1106948448.5836256
16622,0.0
2,1, 7,21, 0,18, 0.00,15.00,SummerDesignDay
8,1098736030.67617
16622,0.0
2,1, 7,21, 0,18,15.00,30.00,SummerDesignDay
8,1088780164.9199338
16622,0.0
2,1, 7,21, 0,18,30.00,45.00,SummerDesignDay
8,1073297169.5283436
16622,0.0
2,1, 7,21, 0,18,45.00,60.00,SummerDesignDay
8,1060141395.9478803
16622,0.0
2,1, 7,21, 0,19, 0.00,15.00,SummerDesignDay
8,1040395511.5797213
16622,0.0
2,1, 7,21, 0,19,15.00,30.00,SummerDesignDay
8,1018711209.9242883
16622,0.0
2,1, 7,21, 0,19,30.00,45.00,SummerDesignDay
8,998859689.4061877
16622,0.0
2,1, 7,21, 0,19,45.00,60.00,SummerDesignDay
8,999837951.5817844
16622,0.0
2,1, 7,21, 0,20, 0.00,15.00,SummerDesignDay
8,995127482.3234427
16622,0.0
2,1, 7,21, 0,20,15.00,30.00,SummerDesignDay
8,987841421.8833575
16622,0.0
2,1, 7,21, 0,20,30.00,45.00,SummerDesignDay
8,984134225.7081535
16622,0.0
2,1, 7,21, 0,20,45.00,60.00,SummerDesignDay
8,979064932.3149178
16622,0.0
2,1, 7,21, 0,21, 0.00,15.00,SummerDesignDay
8,974777432.1198342
16622,0.0
2,1, 7,21, 0,21,15.00,30.00,SummerDesignDay
8,972991920.0118222
16622,0.0
2,1, 7,21, 0,21,30.00,45.00,SummerDesignDay
8,968867940.4290681
16622,0.0
2,1, 7,21, 0,21,45.00,60.00,SummerDesignDay
8,968560941.555906
16622,0.0
2,1, 7,21, 0,22, 0.00,15.00,SummerDesignDay
8,964721744.500558
16622,0.0
2,1, 7,21, 0,22,15.00,30.00,SummerDesignDay
8,962834678.2970908
16622,0.0
2,1, 7,21, 0,22,30.00,45.00,SummerDesignDay
8,960638930.016702
16622,0.0
2,1, 7,21, 0,22,45.00,60.00,SummerDesignDay
8,957379007.7138991
16622,0.0
2,1, 7,21, 0,23, 0.00,15.00,SummerDesignDay
8,918980933.6801084
16622,0.0
2,1, 7,21, 0,23,15.00,30.00,SummerDesignDay
8,915177336.4563216
16622,0.0
2,1, 7,21, 0,23,30.00,45.00,SummerDesignDay
8,916059539.6749362
16622,0.0
2,1, 7,21, 0,23,45.00,60.00,SummerDesignDay
8,913678210.5079944
16622,0.0
2,1, 7,21, 0,24, 0.00,15.00,SummerDesignDay
8,912519704.1816962
16622,0.0
2,1, 7,21, 0,24,15.00,30.00,SummerDesignDay
8,910295727.3652301
16622,0.0
2,1, 7,21, 0,24,30.00,45.00,SummerDesignDay
8,907185927.0859364
16622,0.0
2,1, 7,21, 0,24,45.00,60.00,SummerDesignDay
8,906259235.2464436
16622,0.0
1,MAXWELL AFB ANN CLG 1% CONDNS DB=>MWB 1 HVAC Sizing Pass 1,  32.38, -86.36,  -6.00,  52.00
2,1, 7,21, 0, 1, 0.00,15.00,SummerDesignDay
8,883612662.6351961
16622,0.0
2,1, 7,21, 0, 1,15.00,30.00,SummerDesignDay
8,882889790.274155
16622,0.0
2,1, 7,21, 0, 1,30.00,45.00,SummerDesignDay
8,882182295.8817806
16622,0.0
2,1, 7,21, 0, 1,45.00,60.00,SummerDesignDay
8,881516880.4032496
16622,0.0
2,1, 7,21, 0, 2, 0.00,15.00,SummerDesignDay
8,880990206.9455336
16622,0.0
2,1, 7,21, 0, 2,15.00,30.00,SummerDesignDay
8,880503565.1232756
16622,0.0
2,1, 7,21, 0, 2,30.00,45.00,SummerDesignDay
8,880031015.4395884
16622,0.0
2,1, 7,21, 0, 2,45.00,60.00,SummerDesignDay
8,879566351.6031781
16622,0.0
2,1, 7,21, 0, 3, 0.00,15.00,SummerDesignDay
8,879162444.7377189
16622,0.0
2,1, 7,21, 0, 3,15.00,30.00,SummerDesignDay
8,878777339.5638936
16622,0.0
2,1, 7,21, 0, 3,30.00,45.00,SummerDesignDay
8,878400558.0410844
16622,0.0
2,1, 7,21, 0, 3,45.00,60.00,SummerDesignDay
8,878029139.3293697
16622,0.0
2,1, 7,21, 0, 4, 0.00,15.00,SummerDesignDay
8,877662217.3204359
16622,0.0
2,1, 7,21, 0, 4,15.00,30.00,SummerDesignDay
8,877299712.9846723
16622,0.0
2,1, 7,21, 0, 4,30.00,45.00,SummerDesignDay
8,876941230.5875623
16622,0.0
2,1, 7,21, 0, 4,45.00,60.00,SummerDesignDay
8,876586402.6466169
16622,0.0
2,1, 7,21, 0, 5, 0.00,15.00,SummerDesignDay
8,876288380.7697626
16622,0.0
2,1, 7,21, 0, 5,15.00,30.00,SummerDesignDay
8,876005891.6903896
16622,0.0
2,1, 7,21, 0, 5,30.00,45.00,SummerDesignDay
8,875728772.2085354
16622,0.0
2,1, 7,21, 0, 5,45.00,60.00,SummerDesignDay
8,864038169.6297888
16622,0.0
2,1, 7,21, 0, 6, 0.00,15.00,SummerDesignDay
8,863296929.0501035
16622,0.0
2,1, 7,21, 0, 6,15.00,30.00,SummerDesignDay
8,864523873.8156842
16622,0.0
2,1, 7,21, 0, 6,30.00,45.00,SummerDesignDay
8,865958757.956657
16622,0.0
2,1, 7,21, 0, 6,45.00,60.00,SummerDesignDay
8,867322270.749191
16622,0.0
2,1, 7,21, 0, 7, 0.00,15.00,SummerDesignDay
8,941843265.3091381
16622,0.0
2,1, 7,21, 0, 7,15.00,30.00,SummerDesignDay
8,952491857.5741229
16622,0.0
2,1, 7,21, 0, 7,30.00,45.00,SummerDesignDay
8,951931317.0633414
16622,0.0
2,1, 7,21, 0, 7,45.00,60.00,SummerDesignDay
8,961762289.2701267
16622,0.0
2,1, 7,21, 0, 8, 0.00,15.00,SummerDesignDay
8,971351669.6107337
16622,0.0
2,1, 7,21, 0, 8,15.00,30.00,SummerDesignDay
8,977973514.281941
16622,0.0
2,1, 7,21, 0, 8,30.00,45.00,SummerDesignDay
8,987580166.8411374
16622,0.0
2,1, 7,21, 0, 8,45.00,60.00,SummerDesignDay
8,993063734.7565418
16622,0.0
2,1, 7,21, 0, 9, 0.00,15.00,SummerDesignDay
8,999560352.0763946
16622,0.0
2,1, 7,21, 0, 9,15.00,30.00,SummerDesignDay
8,1005449107.5292573
16622,0.0
2,1, 7,21, 0, 9,30.00,45.00,SummerDesignDay
8,1008642750.263068
16622,0.0
2,1, 7,21, 0, 9,45.00,60.00,SummerDesignDay
8,1014157229.6484501
16622,0.0
2,1, 7,21, 0,10, 0.00,15.00,SummerDesignDay
8,1014755931.9987255
16622,0.0
2,1, 7,21, 0,10,15.00,30.00,SummerDesignDay
8,1016937339.2923106
16622,0.0
2,1, 7,21, 0,10,30.00,45.00,SummerDesignDay
8,1017276887.1903563
16622,0.0
2,1, 7,21, 0,10,45.00,60.00,SummerDesignDay
8,1015952533.36569
16622,0.0
2,1, 7,21, 0,11, 0.00,15.00,SummerDesignDay
8,1015880538.8417019
16622,0.0
2,1, 7,21, 0,11,15.00,30.00,SummerDesignDay
8,1012180812.6144059
16622,0.0
2,1, 7,21, 0,11,30.00,45.00,SummerDesignDay
8,1011542081.1686926
16622,0.0
2,1, 7,21, 0,11,45.00,60.00,SummerDesignDay
8,1008694801.5313628
16622,0.0
2,1, 7,21, 0,12, 0.00,15.00,SummerDesignDay
8,1005456068.0313631
16622,0.0
2,1, 7,21, 0,12,15.00,30.00,SummerDesignDay
8,1004094379.8585529
16622,0.0
2,1, 7,21, 0,12,30.00,45.00,SummerDesignDay
8,1000981527.0344822
16622,0.0
2,1, 7,21, 0,12,45.00,60.00,SummerDesignDay
8,1003882781.565276
16622,0.0
2,1, 7,21, 0,13, 0.00,15.00,SummerDesignDay
8,1006075627.0759072
16622,0.0
2,1, 7,21, 0,13,15.00,30.00,SummerDesignDay
8,1012456917.390544
16622,0.0
2,1, 7,21, 0,13,30.00,45.00,SummerDesignDay
8,1019322546.4494677
16622,0.0
2,1, 7,21, 0,13,45.00,60.00,SummerDesignDay
8,1026558300.5545794
16622,0.0
2,1, 7,21, 0,14, 0.00,15.00,SummerDesignDay
8,1035834411.1539353
16622,0.0
2,1, 7,21, 0,14,15.00,30.00,SummerDesignDay
8,1042403034.7550317
16622,0.0
2,1, 7,21, 0,14,30.00,45.00,SummerDesignDay
8,1053596068.7745804
16622,0.0
2,1, 7,21, 0,14,45.00,60.00,SummerDesignDay
8,1060666349.3597769
16622,0.0
2,1, 7,21, 0,15, 0.00,15.00,SummerDesignDay
8,1068740236.2246985
16622,0.0
2,1, 7,21, 0,15,15.00,30.00,SummerDesignDay
8,1075878054.863182
16622,0.0
2,1, 7,21, 0,15,30.00,45.00,SummerDesignDay
8,1081433390.994978
16622,0.0
2,1, 7,21, 0,15,45.00,60.00,SummerDesignDay
8,1089251136.0299687
16622,0.0
2,1, 7,21, 0,16, 0.00,15.00,SummerDesignDay
8,1091374917.472594
16622,0.0
2,1, 7,21, 0,16,15.00,30.00,SummerDesignDay
8,1095731880.973399
16622,0.0
2,1, 7,21, 0,16,30.00,45.00,SummerDesignDay
8,1097630856.1097262
16622,0.0
2,1, 7,21, 0,16,45.00,60.00,SummerDesignDay
8,1098345381.8943374
16622,0.0
2,1, 7,21, 0,17, 0.00,15.00,SummerDesignDay
8,1099528263.331344
16622,0.0
2,1, 7,21, 0,17,15.00,30.00,SummerDesignDay
8,1095603803.5652983
16622,0.0
2,1, 7,21, 0,17,30.00,45.00,SummerDesignDay
8,1093246102.8516881
16622,0.0
2,1, 7,21, 0,17,45.00,60.00,SummerDesignDay
8,1086163362.7386322
16622,0.0
2,1, 7,21, 0,18, 0.00,15.00,SummerDesignDay
8,1077627544.3848526
16622,0.0
2,1, 7,21, 0,18,15.00,30.00,SummerDesignDay
8,1067566953.4967507
16622,0.0
2,1, 7,21, 0,18,30.00,45.00,SummerDesignDay
8,1051793908.2039442
16622,0.0
2,1, 7,21, 0,18,45.00,60.00,SummerDesignDay
8,1038556116.5070353
16622,0.0
2,1, 7,21, 0,19, 0.00,15.00,SummerDesignDay
8,1018827463.2231222
16622,0.0
2,1, 7,21, 0,19,15.00,30.00,SummerDesignDay
8,996788850.8985229
16622,0.0
2,1, 7,21, 0,19,30.00,45.00,SummerDesignDay
8,976404856.071709
16622,0.0
2,1, 7,21, 0,19,45.00,60.00,SummerDesignDay
8,975921857.0176141
16622,0.0
2,1, 7,21, 0,20, 0.00,15.00,SummerDesignDay
8,969925455.9244922
16622,0.0
2,1, 7,21, 0,20,15.00,30.00,SummerDesignDay
8,961477857.7920924
16622,0.0
2,1, 7,21, 0,20,30.00,45.00,SummerDesignDay
8,956737854.4638094
16622,0.0
2,1, 7,21, 0,20,45.00,60.00,SummerDesignDay
8,951369036.4150565
16622,0.0
2,1, 7,21, 0,21, 0.00,15.00,SummerDesignDay
8,947168715.9061676
16622,0.0
2,1, 7,21, 0,21,15.00,30.00,SummerDesignDay
8,944963556.2326669
16622,0.0
2,1, 7,21, 0,21,30.00,45.00,SummerDesignDay
8,939786204.7161375
16622,0.0
2,1, 7,21, 0,21,45.00,60.00,SummerDesignDay
8,939052348.4041756
16622,0.0
2,1, 7,21, 0,22, 0.00,15.00,SummerDesignDay
8,935490921.0656387
16622,0.0
2,1, 7,21, 0,22,15.00,30.00,SummerDesignDay
8,934537236.5124868
16622,0.0
2,1, 7,21, 0,22,30.00,45.00,SummerDesignDay
8,933236906.3911306
16622,0.0
2,1, 7,21, 0,22,45.00,60.00,SummerDesignDay
8,930668972.3951036
16622,0.0
2,1, 7,21, 0,23, 0.00,15.00,SummerDesignDay
8,892540734.158448
16622,0.0
2,1, 7,21, 0,23,15.00,30.00,SummerDesignDay
8,889425759.3178816
16622,0.0
2,1, 7,21, 0,23,30.00,45.00,SummerDesignDay
8,890410483.8451829
16622,0.0
2,1, 7,21, 0,23,45.00,60.00,SummerDesignDay
8,888220149.770448
16622,0.0
2,1, 7,21, 0,24, 0.00,15.00,SummerDesignDay
8,887859250.8720249
16622,0.0
2,1, 7,21, 0,24,15.00,30.00,SummerDesignDay
8,887191946.2380595
16622,0.0
2,1, 7,21, 0,24,30.00,45.00,SummerDesignDay
8,885629089.1962731
16622,0.0
2,1, 7,21, 0,24,45.00,60.00,SummerDesignDay
8,886363020.5904603
16622,0.0
1,MAXWELL AFB ANN CLG 2% CONDNS DP=>MDB 1 HVAC Sizing Pass 1,  32.38, -86.36,  -6.00,  52.00
2,1, 7,21, 0, 1, 0.00,15.00,SummerDesignDay
8,857835288.0967286
16622,0.0
2,1, 7,21, 0, 1,15.00,30.00,SummerDesignDay
8,856285102.2884797
16622,0.0
2,1, 7,21, 0, 1,30.00,45.00,SummerDesignDay
8,854779274.0564023
16622,0.0
2,1, 7,21, 0, 1,45.00,60.00,SummerDesignDay
8,853332727.6671473
16622,0.0
2,1, 7,21, 0, 2, 0.00,15.00,SummerDesignDay
8,852201622.6842414
16622,0.0
2,1, 7,21, 0, 2,15.00,30.00,SummerDesignDay
8,851178424.4149336
16622,0.0
2,1, 7,21, 0, 2,30.00,45.00,SummerDesignDay
8,850193464.2677808
16622,0.0
2,1, 7,21, 0, 2,45.00,60.00,SummerDesignDay
8,849232817.0437218
16622,0.0
2,1, 7,21, 0, 3, 0.00,15.00,SummerDesignDay
8,848418685.1508758
16622,0.0
2,1, 7,21, 0, 3,15.00,30.00,SummerDesignDay
8,847657832.8937007
16622,0.0
2,1, 7,21, 0, 3,30.00,45.00,SummerDesignDay
8,846917034.9211729
16622,0.0
2,1, 7,21, 0, 3,45.00,60.00,SummerDesignDay
8,846189889.0855402
16622,0.0
2,1, 7,21, 0, 4, 0.00,15.00,SummerDesignDay
8,845472946.4324223
16622,0.0
2,1, 7,21, 0, 4,15.00,30.00,SummerDesignDay
8,844764737.0840322
16622,0.0
2,1, 7,21, 0, 4,30.00,45.00,SummerDesignDay
8,844064607.1410761
16622,0.0
2,1, 7,21, 0, 4,45.00,60.00,SummerDesignDay
8,843372161.2165314
16622,0.0
2,1, 7,21, 0, 5, 0.00,15.00,SummerDesignDay
8,842807822.1256422
16622,0.0
2,1, 7,21, 0, 5,15.00,30.00,SummerDesignDay
8,842290185.996357
16622,0.0
2,1, 7,21, 0, 5,30.00,45.00,SummerDesignDay
8,841786766.273939
16622,0.0
2,1, 7,21, 0, 5,45.00,60.00,SummerDesignDay
8,829724613.1468059
16622,0.0
2,1, 7,21, 0, 6, 0.00,15.00,SummerDesignDay
8,829070437.6048837
16622,0.0
2,1, 7,21, 0, 6,15.00,30.00,SummerDesignDay
8,830198702.7191223
16622,0.0
2,1, 7,21, 0, 6,30.00,45.00,SummerDesignDay
8,831578864.0580798
16622,0.0
2,1, 7,21, 0, 6,45.00,60.00,SummerDesignDay
8,832926889.5132861
16622,0.0
2,1, 7,21, 0, 7, 0.00,15.00,SummerDesignDay
8,870970057.2125577
16622,0.0
2,1, 7,21, 0, 7,15.00,30.00,SummerDesignDay
8,874703363.7066002
16622,0.0
2,1, 7,21, 0, 7,30.00,45.00,SummerDesignDay
8,878089016.5002398
16622,0.0
2,1, 7,21, 0, 7,45.00,60.00,SummerDesignDay
8,885956710.5303848
16622,0.0
2,1, 7,21, 0, 8, 0.00,15.00,SummerDesignDay
8,896748799.138509
16622,0.0
2,1, 7,21, 0, 8,15.00,30.00,SummerDesignDay
8,904987815.1485906
16622,0.0
2,1, 7,21, 0, 8,30.00,45.00,SummerDesignDay
8,916658522.4255958
16622,0.0
2,1, 7,21, 0, 8,45.00,60.00,SummerDesignDay
8,924720636.9149003
16622,0.0
2,1, 7,21, 0, 9, 0.00,15.00,SummerDesignDay
8,934314103.9876488
16622,0.0
2,1, 7,21, 0, 9,15.00,30.00,SummerDesignDay
8,943393460.3417537
16622,0.0
2,1, 7,21, 0, 9,30.00,45.00,SummerDesignDay
8,950531358.2937567
16622,0.0
2,1, 7,21, 0, 9,45.00,60.00,SummerDesignDay
8,960387650.1784201
16622,0.0
2,1, 7,21, 0,10, 0.00,15.00,SummerDesignDay
8,965324334.2707978
16622,0.0
2,1, 7,21, 0,10,15.00,30.00,SummerDesignDay
8,972225337.7174611
16622,0.0
2,1, 7,21, 0,10,30.00,45.00,SummerDesignDay
8,977487512.3782573
16622,0.0
2,1, 7,21, 0,10,45.00,60.00,SummerDesignDay
8,979732426.125523
16622,0.0
2,1, 7,21, 0,11, 0.00,15.00,SummerDesignDay
8,980507993.1571687
16622,0.0
2,1, 7,21, 0,11,15.00,30.00,SummerDesignDay
8,976770662.7775818
16622,0.0
2,1, 7,21, 0,11,30.00,45.00,SummerDesignDay
8,975809989.6765089
16622,0.0
2,1, 7,21, 0,11,45.00,60.00,SummerDesignDay
8,972359679.0834483
16622,0.0
2,1, 7,21, 0,12, 0.00,15.00,SummerDesignDay
8,968716896.809157
16622,0.0
2,1, 7,21, 0,12,15.00,30.00,SummerDesignDay
8,966864139.079313
16622,0.0
2,1, 7,21, 0,12,30.00,45.00,SummerDesignDay
8,963351977.8631169
16622,0.0
2,1, 7,21, 0,12,45.00,60.00,SummerDesignDay
8,965120593.6331847
16622,0.0
2,1, 7,21, 0,13, 0.00,15.00,SummerDesignDay
8,964045216.4636997
16622,0.0
2,1, 7,21, 0,13,15.00,30.00,SummerDesignDay
8,965923757.4939053
16622,0.0
2,1, 7,21, 0,13,30.00,45.00,SummerDesignDay
8,967685112.7926245
16622,0.0
2,1, 7,21, 0,13,45.00,60.00,SummerDesignDay
8,969536810.3824838
16622,0.0
2,1, 7,21, 0,14, 0.00,15.00,SummerDesignDay
8,973859652.1144943
16622,0.0
2,1, 7,21, 0,14,15.00,30.00,SummerDesignDay
8,982618840.0137931
16622,0.0
2,1, 7,21, 0,14,30.00,45.00,SummerDesignDay
8,994695696.9389255
16622,0.0
2,1, 7,21, 0,14,45.00,60.00,SummerDesignDay
8,1001689095.2012616
16622,0.0
2,1, 7,21, 0,15, 0.00,15.00,SummerDesignDay
8,1009546515.6745632
16622,0.0
2,1, 7,21, 0,15,15.00,30.00,SummerDesignDay
8,1015881475.5949881
16622,0.0
2,1, 7,21, 0,15,30.00,45.00,SummerDesignDay
8,1020720233.7541536
16622,0.0
2,1, 7,21, 0,15,45.00,60.00,SummerDesignDay
8,1027814401.7998255
16622,0.0
2,1, 7,21, 0,16, 0.00,15.00,SummerDesignDay
8,1029145718.9464027
16622,0.0
2,1, 7,21, 0,16,15.00,30.00,SummerDesignDay
8,1032855582.620194
16622,0.0
2,1, 7,21, 0,16,30.00,45.00,SummerDesignDay
8,1034182830.3636065
16622,0.0
2,1, 7,21, 0,16,45.00,60.00,SummerDesignDay
8,1034542752.1660138
16622,0.0
2,1, 7,21, 0,17, 0.00,15.00,SummerDesignDay
8,1035515241.1081171
16622,0.0
2,1, 7,21, 0,17,15.00,30.00,SummerDesignDay
8,1032782396.7527646
16622,0.0
2,1, 7,21, 0,17,30.00,45.00,SummerDesignDay
8,1032194231.5652324
16622,0.0
2,1, 7,21, 0,17,45.00,60.00,SummerDesignDay
8,1028038426.9962368
16622,0.0
2,1, 7,21, 0,18, 0.00,15.00,SummerDesignDay
8,1023268741.3314837
16622,0.0
2,1, 7,21, 0,18,15.00,30.00,SummerDesignDay
8,1017039246.828769
16622,0.0
2,1, 7,21, 0,18,30.00,45.00,SummerDesignDay
8,1005692637.2529169
16622,0.0
2,1, 7,21, 0,18,45.00,60.00,SummerDesignDay
8,996496811.641535
16622,0.0
2,1, 7,21, 0,19, 0.00,15.00,SummerDesignDay
8,981078166.3945218
16622,0.0
2,1, 7,21, 0,19,15.00,30.00,SummerDesignDay
8,964275521.2238276
16622,0.0
2,1, 7,21, 0,19,30.00,45.00,SummerDesignDay
8,949814575.3806334
16622,0.0
2,1, 7,21, 0,19,45.00,60.00,SummerDesignDay
8,953133994.3190023
16622,0.0
2,1, 7,21, 0,20, 0.00,15.00,SummerDesignDay
8,948426772.1914173
16622,0.0
2,1, 7,21, 0,20,15.00,30.00,SummerDesignDay
8,941276528.1102715
16622,0.0
2,1, 7,21, 0,20,30.00,45.00,SummerDesignDay
8,938007049.6241285
16622,0.0
2,1, 7,21, 0,20,45.00,60.00,SummerDesignDay
8,933001871.8889108
16622,0.0
2,1, 7,21, 0,21, 0.00,15.00,SummerDesignDay
8,928528443.8340513
16622,0.0
2,1, 7,21, 0,21,15.00,30.00,SummerDesignDay
8,925867627.0716685
16622,0.0
2,1, 7,21, 0,21,30.00,45.00,SummerDesignDay
8,920128210.8811686
16622,0.0
2,1, 7,21, 0,21,45.00,60.00,SummerDesignDay
8,918540171.4879607
16622,0.0
2,1, 7,21, 0,22, 0.00,15.00,SummerDesignDay
8,913726848.4334441
16622,0.0
2,1, 7,21, 0,22,15.00,30.00,SummerDesignDay
8,911093727.7319647
16622,0.0
2,1, 7,21, 0,22,30.00,45.00,SummerDesignDay
8,908219494.6365781
16622,0.0
2,1, 7,21, 0,22,45.00,60.00,SummerDesignDay
8,904306818.9967816
16622,0.0
2,1, 7,21, 0,23, 0.00,15.00,SummerDesignDay
8,875581513.1589438
16622,0.0
2,1, 7,21, 0,23,15.00,30.00,SummerDesignDay
8,871383697.1585077
16622,0.0
2,1, 7,21, 0,23,30.00,45.00,SummerDesignDay
8,871169300.6400646
16622,0.0
2,1, 7,21, 0,23,45.00,60.00,SummerDesignDay
8,867914131.7667983
16622,0.0
2,1, 7,21, 0,24, 0.00,15.00,SummerDesignDay
8,866378945.6266967
16622,0.0
2,1, 7,21, 0,24,15.00,30.00,SummerDesignDay
8,864454399.3891166
16622,0.0
2,1, 7,21, 0,24,30.00,45.00,SummerDesignDay
8,861822388.6504223
16622,0.0
2,1, 7,21, 0,24,45.00,60.00,SummerDesignDay
8,861478307.4953156
16622,0.0
1,MAXWELL AFB ANN HTG 99% CONDNS DB 1 HVAC Sizing Pass 1,  32.38, -86.36,  -6.00,  52.00
2,1, 1,21, 0, 1, 0.00,15.00,WinterDesignDay
8,491714980.4936536
16622,939836329.7218074
2,1, 1,21, 0, 1,15.00,30.00,WinterDesignDay
8,491713293.05316323
16622,939486936.8553926
2,1, 1,21, 0, 1,30.00,45.00,WinterDesignDay
8,491715476.38920635
16622,939985915.4782989