Program Version,EnergyPlus, Version 23.2.0-7636e6b3e9, YMD=2024.01.24 11:24
1,5,Environment Title[],Latitude[deg],Longitude[deg],Time Zone[],Elevation[m]
2,8,Day of Simulation[],Month[],Day of Month[],DST Indicator[1=yes 0=no],Hour[],StartMinute[],EndMinute[],DayType
3,5,Cumulative Day of Simulation[],Month[],Day of Month[],DST Indicator[1=yes 0=no],DayType  ! When Daily Report Variables Requested
4,2,Cumulative Days of Simulation[],Month[]  ! When Monthly Report Variables Requested
5,1,Cumulative Days of Simulation[] ! When Run Period Report Variables Requested
6,1,Calendar Year of Simulation[] ! When Annual Report Variables Requested
9,1,Electricity:Facility [J] !TimeStep
16737,1,NaturalGas:Facility [J] !TimeStep
End of Data Dictionary
1,MAXWELL AFB ANN CLG .4% CONDNS DB=>MWB 1 HVAC Sizing Pass 1,  32.38, -86.36,  -6.00,  52.00
2,1, 7,21, 0, 1, 0.00,60.00,SummerDesignDay
9,2489448674.6324744
16737,6424112.030995762
2,1, 7,21, 0, 2, 0.00,60.00,SummerDesignDay
9,2478776642.4876914
16737,20889966.10295371
2,1, 7,21, 0, 3, 0.00,60.00,SummerDesignDay
9,2471720153.45045
16737,44745460.647209816
2,1, 7,21, 0, 4, 0.00,60.00,SummerDesignDay
9,2465980227.842552
16737,73848718.77212651
2,1, 7,21, 0, 5, 0.00,60.00,SummerDesignDay
9,2462450797.8509693
16737,100656434.99495134
2,1, 7,21, 0, 6, 0.00,60.00,SummerDesignDay
9,2419844313.365394
16737,67652951.16730256
2,1, 7,21, 0, 7, 0.00,60.00,SummerDesignDay
9,2534281897.030796
16737,18780402.12964928
2,1, 7,21, 0, 8, 0.00,60.00,SummerDesignDay
9,2685525477.9279075
16737,832673.8714873217
2,1, 7,21, 0, 9, 0.00,60.00,SummerDesignDay
9,2806681099.2525277
16737,0.0
2,1, 7,21, 0,10, 0.00,60.00,SummerDesignDay
9,2849917544.061869
16737,0.0
2,1, 7,21, 0,11, 0.00,60.00,SummerDesignDay
9,2815107279.126861
16737,0.0
2,1, 7,21, 0,12, 0.00,60.00,SummerDesignDay
9,2746580027.868543
16737,0.0
2,1, 7,21, 0,13, 0.00,60.00,SummerDesignDay
9,2744249257.348529
16737,0.0
2,1, 7,21, 0,14, 0.00,60.00,SummerDesignDay
9,2850918025.034355
16737,0.0
2,1, 7,21, 0,15, 0.00,60.00,SummerDesignDay
9,2998241899.647347
16737,0.0
2,1, 7,21, 0,16, 0.00,60.00,SummerDesignDay
9,3092638397.954697
16737,0.0
2,1, 7,21, 0,17, 0.00,60.00,SummerDesignDay
9,3109015887.727613
16737,0.0
2,1, 7,21, 0,18, 0.00,60.00,SummerDesignDay
9,2996989639.62672
16737,0.0
2,1, 7,21, 0,19, 0.00,60.00,SummerDesignDay
9,2724243274.5858097
16737,0.0
2,1, 7,21, 0,20, 0.00,60.00,SummerDesignDay
9,2644601664.230878
16737,0.0
2,1, 7,21, 0,21, 0.00,60.00,SummerDesignDay
9,2590656078.155147
16737,0.0
2,1, 7,21, 0,22, 0.00,60.00,SummerDesignDay
9,2566800712.226773
16737,0.0
2,1, 7,21, 0,23, 0.00,60.00,SummerDesignDay
9,2527786668.333657
16737,0.0
2,1, 7,21, 0,24, 0.00,60.00,SummerDesignDay
9,2510857180.392315
16737,2051555.7846555398
1,MAXWELL AFB ANN CLG .4% CONDNS WB=>MDB 1 HVAC Sizing Pass 1,  32.38, -86.36,  -6.00,  52.00
2,1, 7,21, 0, 1, 0.00,60.00,SummerDesignDay
9,2516130393.0287266
16737,71300167.8709726
2,1, 7,21, 0, 2, 0.00,60.00,SummerDesignDay
9,2499546834.452708
16737,114647083.1226923
2,1, 7,21, 0, 3, 0.00,60.00,SummerDesignDay
9,2487135716.362175
16737,152956138.08656672
2,1, 7,21, 0, 4, 0.00,60.00,SummerDesignDay
9,2475875031.3398333
16737,187521487.24413696
2,1, 7,21, 0, 5, 0.00,60.00,SummerDesignDay
9,2468897379.157531
16737,230252061.29683405
2,1, 7,21, 0, 6, 0.00,60.00,SummerDesignDay
9,2362955261.5199757
16737,0.0
2,1, 7,21, 0, 7, 0.00,60.00,SummerDesignDay
9,2404257049.9841948
16737,0.0
2,1, 7,21, 0, 8, 0.00,60.00,SummerDesignDay
9,2665731406.5157027
16737,42407112.90715793
2,1, 7,21, 0, 9, 0.00,60.00,SummerDesignDay
9,2856574896.1112037
16737,6158022.936274463
2,1, 7,21, 0,10, 0.00,60.00,SummerDesignDay
9,2886369760.7664714
16737,0.0
2,1, 7,21, 0,11, 0.00,60.00,SummerDesignDay
9,2850145499.6904435
16737,0.0
2,1, 7,21, 0,12, 0.00,60.00,SummerDesignDay
9,2781484868.4788513
16737,0.0
2,1, 7,21, 0,13, 0.00,60.00,SummerDesignDay
9,2769873890.5692425
16737,0.0
2,1, 7,21, 0,14, 0.00,60.00,SummerDesignDay
9,2840935403.0271797
16737,0.0
2,1, 7,21, 0,15, 0.00,60.00,SummerDesignDay
9,2982638749.600897
16737,0.0
2,1, 7,21, 0,16, 0.00,60.00,SummerDesignDay
9,3085007381.4877954
16737,0.0
2,1, 7,21, 0,17, 0.00,60.00,SummerDesignDay
9,3099877705.240203
16737,0.0
2,1, 7,21, 0,18, 0.00,60.00,SummerDesignDay
9,2986011632.042947
16737,0.0
2,1, 7,21, 0,19, 0.00,60.00,SummerDesignDay
9,2749214273.75159
16737,0.0
2,1, 7,21, 0,20, 0.00,60.00,SummerDesignDay
9,2682154289.414793
16737,0.0
2,1, 7,21, 0,21, 0.00,60.00,SummerDesignDay
9,2640642709.6113625
16737,0.0
2,1, 7,21, 0,22, 0.00,60.00,SummerDesignDay
9,2619834444.9971213
16737,111608.85709601371
2,1, 7,21, 0,23, 0.00,60.00,SummerDesignDay
9,2578910330.7287316
16737,5732414.656901505
2,1, 7,21, 0,24, 0.00,60.00,SummerDesignDay
9,2548285663.9783807
16737,25938938.506165884
1,MAXWELL AFB ANN CLG 1% CONDNS DB=>MWB 1 HVAC Sizing Pass 1,  32.38, -86.36,  -6.00,  52.00
2,1, 7,21, 0, 1, 0.00,60.00,SummerDesignDay
9,2484056321.2777214
16737,16299506.550704077
2,1, 7,21, 0, 2, 0.00,60.00,SummerDesignDay
9,2474133863.8368826
16737,43028796.14922319
2,1, 7,21, 0, 3, 0.00,60.00,SummerDesignDay
9,2468206810.265536
16737,76875273.02144282
2,1, 7,21, 0, 4, 0.00,60.00,SummerDesignDay
9,2462575378.467683
16737,109535441.86722289
2,1, 7,21, 0, 5, 0.00,60.00,SummerDesignDay
9,2459277198.5508866
16737,138831829.3401736
2,1, 7,21, 0, 6, 0.00,60.00,SummerDesignDay
9,2414704343.788232
16737,90840960.60862426
2,1, 7,21, 0, 7, 0.00,60.00,SummerDesignDay
9,2518762401.2043767
16737,32012846.333311383
2,1, 7,21, 0, 8, 0.00,60.00,SummerDesignDay
9,2663736243.924802
16737,4074546.6718405364
2,1, 7,21, 0, 9, 0.00,60.00,SummerDesignDay
9,2782915911.4546103
16737,0.0
2,1, 7,21, 0,10, 0.00,60.00,SummerDesignDay
9,2825940828.8042006
16737,0.0
2,1, 7,21, 0,11, 0.00,60.00,SummerDesignDay
9,2792947559.8295474
16737,0.0
2,1, 7,21, 0,12, 0.00,60.00,SummerDesignDay
9,2725629416.055259
16737,0.0
2,1, 7,21, 0,13, 0.00,60.00,SummerDesignDay
9,2718034794.0876865
16737,0.0
2,1, 7,21, 0,14, 0.00,60.00,SummerDesignDay
9,2803256678.074552
16737,0.0
2,1, 7,21, 0,15, 0.00,60.00,SummerDesignDay
9,2945320223.977578
16737,0.0
2,1, 7,21, 0,16, 0.00,60.00,SummerDesignDay
9,3044439647.941939
16737,0.0
2,1, 7,21, 0,17, 0.00,60.00,SummerDesignDay
9,3065506314.7767653
16737,0.0
2,1, 7,21, 0,18, 0.00,60.00,SummerDesignDay
9,2959092304.3947515
16737,0.0
2,1, 7,21, 0,19, 0.00,60.00,SummerDesignDay
9,2701406779.3849006
16737,0.0
2,1, 7,21, 0,20, 0.00,60.00,SummerDesignDay
9,2630707868.540201
16737,0.0
2,1, 7,21, 0,21, 0.00,60.00,SummerDesignDay
9,2579647871.5083222
16737,0.0
2,1, 7,21, 0,22, 0.00,60.00,SummerDesignDay
9,2560246581.761502
16737,0.0
2,1, 7,21, 0,23, 0.00,60.00,SummerDesignDay
9,2521844445.7165236
16737,443287.1362798347
2,1, 7,21, 0,24, 0.00,60.00,SummerDesignDay
9,2505191020.180548
16737,4751007.353445185
1,MAXWELL AFB ANN CLG 2% CONDNS DP=>MDB 1 HVAC Sizing Pass 1,  32.38, -86.36,  -6.00,  52.00
2,1, 7,21, 0, 1, 0.00,60.00,SummerDesignDay
9,2407047040.8961587
16737,221773959.18985778
2,1, 7,21, 0, 2, 0.00,60.00,SummerDesignDay
9,2394295315.0581746
16737,290916076.86770236
2,1, 7,21, 0, 3, 0.00,60.00,SummerDesignDay
9,2385658676.827387
16737,383354034.42587763
2,1, 7,21, 0, 4, 0.00,60.00,SummerDesignDay
9,2378188381.0782056
16737,463727558.1364075
2,1, 7,21, 0, 5, 0.00,60.00,SummerDesignDay
9,2373678918.0621076
16737,527766707.05008996
2,1, 7,21, 0, 6, 0.00,60.00,SummerDesignDay
9,2271733714.73295
16737,0.0
2,1, 7,21, 0, 7, 0.00,60.00,SummerDesignDay
9,2304742677.1886415
16737,0.0
2,1, 7,21, 0, 8, 0.00,60.00,SummerDesignDay
9,2485871282.28785
16737,179768019.3617327
2,1, 7,21, 0, 9, 0.00,60.00,SummerDesignDay
9,2675371341.3976717
16737,83071038.47964643
2,1, 7,21, 0,10, 0.00,60.00,SummerDesignDay
9,2740645070.977056
16737,12074605.342336282
2,1, 7,21, 0,11, 0.00,60.00,SummerDesignDay
9,2711159269.284467
16737,0.0
2,1, 7,21, 0,12, 0.00,60.00,SummerDesignDay
9,2655231755.393717
16737,0.0
2,1, 7,21, 0,13, 0.00,60.00,SummerDesignDay
9,2642435152.6722255
16737,0.0
2,1, 7,21, 0,14, 0.00,60.00,SummerDesignDay
9,2655190550.4760265
16737,0.0
2,1, 7,21, 0,15, 0.00,60.00,SummerDesignDay
9,2762617549.43466
16737,0.0
2,1, 7,21, 0,16, 0.00,60.00,SummerDesignDay
9,2851418813.3046923
16737,0.0
2,1, 7,21, 0,17, 0.00,60.00,SummerDesignDay
9,2879950644.7773747
16737,0.0
2,1, 7,21, 0,18, 0.00,60.00,SummerDesignDay
9,2823421251.480131
16737,0.0
2,1, 7,21, 0,19, 0.00,60.00,SummerDesignDay
9,2631464578.6796217
16737,0.0
2,1, 7,21, 0,20, 0.00,60.00,SummerDesignDay
9,2571160123.3075056
16737,2302.619999743173
2,1, 7,21, 0,21, 0.00,60.00,SummerDesignDay
9,2531642092.1856456
16737,3311414.625271828
2,1, 7,21, 0,22, 0.00,60.00,SummerDesignDay
9,2496803051.1208606
16737,24422965.85088455
2,1, 7,21, 0,23, 0.00,60.00,SummerDesignDay
9,2454296999.99323
16737,101555073.31920776
2,1, 7,21, 0,24, 0.00,60.00,SummerDesignDay
9,2432077063.697659
16737,161772382.2188859
1,MAXWELL AFB ANN HTG 99% CONDNS DB 1 HVAC Sizing Pass 1,  32.38, -86.36,  -6.00,  52.00
2,1, 1,21, 0, 1, 0.00,60.00,WinterDesignDay
9,1436920675.269383
16737,3218927033.718385
2,1, 1,21, 0, 2, 0.00,60.00,WinterDesignDay
9,1436915346.9348176
16737,3218400006.991385
2,1, 1,21, 0, 3, 0.00,60.00,WinterDesignDay
9,1436918361.945766
16737,3218654632.3739586
2,1, 1,21, 0, 4, 0.00,60.00,WinterDesignDay
9,1436915622.5619195
16737,3218437661.592016
2,1, 1,21, 0, 5, 0.00,60.00,WinterDesignDay
9,1438192638.8952093
16737,3218654746.0548997
2,1, 1,21, 0, 6, 0.00,60.00,WinterDesignDay
9,1436915887.2672088
16737,3218430839.687559
2,1, 1,21, 0, 7, 0.00,60.00,WinterDesignDay
9,1442517404.4739006
16737,3218555986.425707
2,1, 1,21, 0, 8, 0.00,60.00,WinterDesignDay
9,1392501855.0647273
16737,3218342581.7179723
2,1, 1,21, 0, 9, 0.00,60.00,WinterDesignDay
9,1391446717.5769835
16737,3218547814.4196978
2,1, 1,21, 0,10, 0.00,60.00,WinterDesignDay
9,1391639797.301487
16737,3218479118.968765
2,1, 1,21, 0,11, 0.00,60.00,WinterDesignDay
9,1392801137.090816
16737,3218210429.494432
2,1, 1,21, 0,12, 0.00,60.00,WinterDesignDay
9,1391560373.127036
16737,3218287789.5584893
2,1, 1,21, 0,13, 0.00,60.00,WinterDesignDay
9,1392033216.8604264
16737,3218289287.1735544
2,1, 1,21, 0,14, 0.00,60.00,WinterDesignDay
9,1392578876.549017
16737,3218235222.448581
2,1, 1,21, 0,15, 0.00,60.00,WinterDesignDay
9,1390679641.398837
16737,3218199508.012212
2,1, 1,21, 0,16, 0.00,60.00,WinterDesignDay
9,1391845013.204831
16737,3218287791.9890785
2,1, 1,21, 0,17, 0.00,60.00,WinterDesignDay
9,1391692529.608161
16737,3218111956.2466774
2,1, 1,21, 0,18, 0.00,60.00,WinterDesignDay
9,1441286844.3860352
16737,3218067152.74163
2,1, 1,21, 0,19, 0.00,60.00,WinterDesignDay
9,1442462704.2788777
16737,3218089752.2945547
2,1, 1,21, 0,20, 0.00,60.00,WinterDesignDay
9,1442287422.5995708
16737,3218032561.3378606
2,1, 1,21, 0,21, 0.00,60.00,WinterDesignDay
9,1441284099.5384984
16737,3218547980.737563
2,1, 1,21, 0,22, 0.00,60.00,WinterDesignDay
9,1442469732.2048526
16737,3218402100.8884664
2,1, 1,21, 0,23, 0.00,60.00,WinterDesignDay
9,1442296891.1261475
16737,3218817911.545829
2,1, 1,21, 0,24, 0.00,60.00,WinterDesignDay
9,1441174356.9961681
16737,3218465754.1739063
1,MAXWELL AFB ANN HTG 99.6% CONDNS DB 1 HVAC Sizing Pass 1,  32.38, -86.36,  -6.00,  52.00
2,1, 1,21, 0, 1, 0.00,60.00,WinterDesignDay
9,1438166160.9315932
16737,3349493710.6148467
2,1, 1,21, 0, 2, 0.00,60.00,WinterDesignDay
9,1438168043.032414
16737,3349613946.927505
2,1, 1,21, 0, 3, 0.00,60.00,WinterDesignDay
9,1438169873.0562098
16737,3349783633.3026385
2,1, 1,21, 0, 4, 0.00,60.00,WinterDesignDay
9,1438172823.5678635
16737,3349977947.475517
2,1, 1,21, 0, 5, 0.00,60.00,WinterDesignDay
9,1439443751.8928938
16737,3349710897.1145616
2,1, 1,21, 0, 6, 0.00,60.00,WinterDesignDay
9,1438169507.214276
16737,3349735318.5890174
2,1, 1,21, 0, 7, 0.00,60.00,WinterDesignDay
9,1443768559.5290709
16737,3349670806.0466843
2,1, 1,21, 0, 8, 0.00,60.00,WinterDesignDay
9,1393755862.265817
16737,3349682590.8061924
2,1, 1,21, 0, 9, 0.00,60.00,WinterDesignDay
9,1392698422.7689874
16737,3349676460.5941358
2,1, 1,21, 0,10, 0.00,60.00,WinterDesignDay
9,1392891368.52524
16737,3349570474.950087
2,1, 1,21, 0,11, 0.00,60.00,WinterDesignDay
9,1394056412.7275875
16737,3349712235.5470414
2,1, 1,21, 0,12, 0.00,60.00,WinterDesignDay
9,1392813339.707634
16737,3349579257.01248
2,1, 1,21, 0,13, 0.00,60.00,WinterDesignDay
9,1393288788.9658692
16737,3349771332.931225
2,1, 1,21, 0,14, 0.00,60.00,WinterDesignDay
9,1393837570.5517638
16737,3350014745.2136126
2,1, 1,21, 0,15, 0.00,60.00,WinterDesignDay
9,1391937469.807912
16737,3349844196.7698216
2,1, 1,21, 0,16, 0.00,60.00,WinterDesignDay
9,1393102372.1507132
16737,3349882203.1684265
2,1, 1,21, 0,17, 0.00,60.00,WinterDesignDay
9,1392946301.2157657
16737,3349502866.7813773
2,1, 1,21, 0,18, 0.00,60.00,WinterDesignDay
9,1442546085.381187
16737,3349887115.10205
2,1, 1,21, 0,19, 0.00,60.00,WinterDesignDay
9,1443720113.447628
16737,3349782565.769642
2,1, 1,21, 0,20, 0.00,60.00,WinterDesignDay
9,1443549249.6732724
16737,3350009646.0359726
2,1, 1,21, 0,21, 0.00,60.00,WinterDesignDay
9,1442534156.0025823
16737,3349495878.816799
2,1, 1,21, 0,22, 0.00,60.00,WinterDesignDay
9,1443727728.5618303
16737,3349969518.1488338
2,1, 1,21, 0,23, 0.00,60.00,WinterDesignDay
9,1443544292.9879463
16737,3349544828.8738666
2,1, 1,21, 0,24, 0.00,60.00,WinterDesignDay
9,1442430629.932871
16737,3349899945.5368896
1,MAXWELL AFB ANN HTG WIND 99% CONDNS WS=>MCDB 1 HVAC Sizing Pass 1,  32.38, -86.36,  -6.00,  52.00
2,1, 1,21, 0, 1, 0.00,60.00,WinterDesignDay
9,1501777325.0367756
16737,2917559290.599666
2,1, 1,21, 0, 2, 0.00,60.00,WinterDesignDay
9,1501740931.0176275
16737,2914463603.887216
2,1, 1,21, 0, 3, 0.00,60.00,WinterDesignDay
9,1501708933.1259089
16737,2912764445.04788
2,1, 1,21, 0, 4, 0.00,60.00,WinterDesignDay
9,1501687966.8388774
16737,2910261152.5471487
2,1, 1,21, 0, 5, 0.00,60.00,WinterDesignDay
9,1502938052.06452
16737,2908245518.563937
2,1, 1,21, 0, 6, 0.00,60.00,WinterDesignDay
9,1405482751.7641096
16737,763078.2185031533
2,1, 1,21, 0, 7, 0.00,60.00,WinterDesignDay
9,1397914135.1269634
16737,26523588.11894529
2,1, 1,21, 0, 8, 0.00,60.00,WinterDesignDay
9,1463160314.8137426
16737,3390088268.1402445
2,1, 1,21, 0, 9, 0.00,60.00,WinterDesignDay
9,1461389041.5248814
16737,3246646788.946338
2,1, 1,21, 0,10, 0.00,60.00,WinterDesignDay
9,1457491667.015218
16737,3104575143.604284
2,1, 1,21, 0,11, 0.00,60.00,WinterDesignDay
9,1458648969.3480175
16737,3034819730.9357443
2,1, 1,21, 0,12, 0.00,60.00,WinterDesignDay
9,1458518106.2942398
16737,3006564474.7064505
2,1, 1,21, 0,13, 0.00,60.00,WinterDesignDay
9,1457088893.8396811
16737,2991119572.004033
2,1, 1,21, 0,14, 0.00,60.00,WinterDesignDay
9,1458291125.5141761
16737,2979019152.98131
2,1, 1,21, 0,15, 0.00,60.00,WinterDesignDay
9,1456357446.9213438
16737,2969116122.040759
2,1, 1,21, 0,16, 0.00,60.00,WinterDesignDay
9,1456580977.2131252
16737,2960212815.6324267
2,1, 1,21, 0,17, 0.00,60.00,WinterDesignDay
9,1457446257.065621
16737,2953173219.974021
2,1, 1,21, 0,18, 0.00,60.00,WinterDesignDay
9,1506412416.883703
16737,2946934014.861646
2,1, 1,21, 0,19, 0.00,60.00,WinterDesignDay
9,1506906872.5453568
16737,2941255347.7038884
2,1, 1,21, 0,20, 0.00,60.00,WinterDesignDay
9,1507908978.29097
16737,2936211252.553214
2,1, 1,21, 0,21, 0.00,60.00,WinterDesignDay
9,1506226549.2613428
16737,2931707122.0401726
2,1, 1,21, 0,22, 0.00,60.00,WinterDesignDay
9,1507635225.5916193
16737,2927624303.171115
2,1, 1,21, 0,23, 0.00,60.00,WinterDesignDay
9,1507627775.08834
16737,2924243957.5021076
2,1, 1,21, 0,24, 0.00,60.00,WinterDesignDay
9,1506193702.3542151
16737,2921231605.5741487
1,MAXWELL AFB APRIL .4% CONDNS DB=>MCWB 1 HVAC Sizing Pass 1,  32.38, -86.36,  -6.00,  52.00
2,1, 4,21, 0, 1, 0.00,60.00,SummerDesignDay
9,2346532556.557078
16737,173498048.26188713
2,1, 4,21, 0, 2, 0.00,60.00,SummerDesignDay
9,2339491743.2741184
16737,240433857.53828007
2,1, 4,21, 0, 3, 0.00,60.00,SummerDesignDay
9,2335548805.2611384
16737,340720572.0157729
2,1, 4,21, 0, 4, 0.00,60.00,SummerDesignDay
9,2330527573.563113
16737,428485877.06406355
2,1, 4,21, 0, 5, 0.00,60.00,SummerDesignDay
9,2330147253.5998654
16737,498907598.5189638
2,1, 4,21, 0, 6, 0.00,60.00,SummerDesignDay
9,2227130385.4207153
16737,0.0
2,1, 4,21, 0, 7, 0.00,60.00,SummerDesignDay
9,2251124790.464795
16737,0.0
2,1, 4,21, 0, 8, 0.00,60.00,SummerDesignDay
9,2408982388.6261444
16737,172686292.6006898
2,1, 4,21, 0, 9, 0.00,60.00,SummerDesignDay
9,2575154040.623019
16737,49389324.21875245
2,1, 4,21, 0,10, 0.00,60.00,SummerDesignDay
9,2608411540.6397204
16737,502144.764829482
2,1, 4,21, 0,11, 0.00,60.00,SummerDesignDay
9,2579861681.386422
16737,0.0
2,1, 4,21, 0,12, 0.00,60.00,SummerDesignDay
9,2535378857.8960824
16737,0.0
2,1, 4,21, 0,13, 0.00,60.00,SummerDesignDay
9,2544147973.4580574
16737,0.0
2,1, 4,21, 0,14, 0.00,60.00,SummerDesignDay
9,2596688756.4491463
16737,0.0
2,1, 4,21, 0,15, 0.00,60.00,SummerDesignDay
9,2725825774.9731765
16737,0.0
2,1, 4,21, 0,16, 0.00,60.00,SummerDesignDay
9,2800272710.1844287
16737,0.0
2,1, 4,21, 0,17, 0.00,60.00,SummerDesignDay
9,2778891114.9280334
16737,0.0
2,1, 4,21, 0,18, 0.00,60.00,SummerDesignDay
9,2654751545.095208
16737,0.0
2,1, 4,21, 0,19, 0.00,60.00,SummerDesignDay
9,2499364220.998415
16737,0.0
2,1, 4,21, 0,20, 0.00,60.00,SummerDesignDay
9,2442420313.6917725
16737,0.0
2,1, 4,21, 0,21, 0.00,60.00,SummerDesignDay
9,2423183186.410675
16737,459679.77801974333
2,1, 4,21, 0,22, 0.00,60.00,SummerDesignDay
9,2404603393.6956997
16737,7416424.994264796
2,1, 4,21, 0,23, 0.00,60.00,SummerDesignDay
9,2374394187.083017
16737,40068926.2155832
2,1, 4,21, 0,24, 0.00,60.00,SummerDesignDay
9,2362991445.6119514
16737,102027145.5403341
1,MAXWELL AFB APRIL .4% CONDNS WB=>MCDB 1 HVAC Sizing Pass 1,  32.38, -86.36,  -6.00,  52.00
2,1, 4,21, 0, 1, 0.00,60.00,SummerDesignDay
9,2339083581.586784
16737,384611433.8676481
2,1, 4,21, 0, 2, 0.00,60.00,SummerDesignDay
9,2329437358.9694667
16737,495379305.2360466
2,1, 4,21, 0, 3, 0.00,60.00,SummerDesignDay
9,2322482214.9332623
16737,579923969.4450322
2,1, 4,21, 0, 4, 0.00,60.00,SummerDesignDay
9,2316088442.9219875
16737,650798257.1521362
2,1, 4,21, 0, 5, 0.00,60.00,SummerDesignDay
9,2314961866.8856797
16737,709236122.2537938
2,1, 4,21, 0, 6, 0.00,60.00,SummerDesignDay
9,2217200161.252765
16737,0.0
2,1, 4,21, 0, 7, 0.00,60.00,SummerDesignDay
9,2241656694.863464
16737,0.0
2,1, 4,21, 0, 8, 0.00,60.00,SummerDesignDay
9,2402579746.85528
16737,319354079.36530775
2,1, 4,21, 0, 9, 0.00,60.00,SummerDesignDay
9,2585259473.9861403
16737,186895591.48123616
2,1, 4,21, 0,10, 0.00,60.00,SummerDesignDay
9,2646318977.3180795
16737,37253588.52829243
2,1, 4,21, 0,11, 0.00,60.00,SummerDesignDay
9,2620820701.3211665
16737,161233.88171332574
2,1, 4,21, 0,12, 0.00,60.00,SummerDesignDay
9,2573949137.1021304
16737,0.0
2,1, 4,21, 0,13, 0.00,60.00,SummerDesignDay
9,2577761551.604601
16737,0.0
2,1, 4,21, 0,14, 0.00,60.00,SummerDesignDay
9,2606230649.6099887
16737,0.0
2,1, 4,21, 0,15, 0.00,60.00,SummerDesignDay
9,2721245155.6000996
16737,0.0
2,1, 4,21, 0,16, 0.00,60.00,SummerDesignDay
9,2795269943.0292773
16737,0.0
2,1, 4,21, 0,17, 0.00,60.00,SummerDesignDay
9,2806400093.7165127
16737,0.0
2,1, 4,21, 0,18, 0.00,60.00,SummerDesignDay
9,2696807973.8165708
16737,0.0
2,1, 4,21, 0,19, 0.00,60.00,SummerDesignDay
9,2551773161.0750866
16737,0.0
2,1, 4,21, 0,20, 0.00,60.00,SummerDesignDay
9,2495369916.0674777
16737,566504.8935640089
2,1, 4,21, 0,21, 0.00,60.00,SummerDesignDay
9,2462278175.407632
16737,10990471.644692743
2,1, 4,21, 0,22, 0.00,60.00,SummerDesignDay
9,2430124042.598159
16737,39471023.91819891
2,1, 4,21, 0,23, 0.00,60.00,SummerDesignDay
9,2386911340.0591908
16737,157630669.9572716
2,1, 4,21, 0,24, 0.00,60.00,SummerDesignDay
9,2362847328.3759365
16737,251669905.91897765
1,MAXWELL AFB AUGUST .4% CONDNS DB=>MCWB 1 HVAC Sizing Pass 1,  32.38, -86.36,  -6.00,  52.00
2,1, 8,21, 0, 1, 0.00,60.00,SummerDesignDay
9,2492570839.0076804
16737,2873761.932409175
2,1, 8,21, 0, 2, 0.00,60.00,SummerDesignDay
9,2481940533.2974253
16737,10271748.626307145
2,1, 8,21, 0, 3, 0.00,60.00,SummerDesignDay
9,2474540891.11326
16737,23296634.246372078
2,1, 8,21, 0, 4, 0.00,60.00,SummerDesignDay
9,2468425276.161175
16737,39202990.07141353
2,1, 8,21, 0, 5, 0.00,60.00,SummerDesignDay
9,2464763341.1769886
16737,55718232.34309775
2,1, 8,21, 0, 6, 0.00,60.00,SummerDesignDay
9,2413963371.1748705
16737,45074840.0765137
2,1, 8,21, 0, 7, 0.00,60.00,SummerDesignDay
9,2512660897.028563
16737,14118384.393072011
2,1, 8,21, 0, 8, 0.00,60.00,SummerDesignDay
9,2676815297.630193
16737,569325.7885544394
2,1, 8,21, 0, 9, 0.00,60.00,SummerDesignDay
9,2817978756.2055254
16737,0.0
2,1, 8,21, 0,10, 0.00,60.00,SummerDesignDay
9,2875873561.2597017
16737,0.0
2,1, 8,21, 0,11, 0.00,60.00,SummerDesignDay
9,2858104677.256932
16737,0.0
2,1, 8,21, 0,12, 0.00,60.00,SummerDesignDay
9,2810118317.378939
16737,0.0
2,1, 8,21, 0,13, 0.00,60.00,SummerDesignDay
9,2824213422.06708
16737,0.0
2,1, 8,21, 0,14, 0.00,60.00,SummerDesignDay
9,2961439199.615356
16737,0.0
2,1, 8,21, 0,15, 0.00,60.00,SummerDesignDay
9,3126473305.800389
16737,0.0
2,1, 8,21, 0,16, 0.00,60.00,SummerDesignDay
9,3205850330.9886484
16737,0.0
2,1, 8,21, 0,17, 0.00,60.00,SummerDesignDay
9,3159980524.823881
16737,0.0
2,1, 8,21, 0,18, 0.00,60.00,SummerDesignDay
9,2960575250.423857
16737,0.0
2,1, 8,21, 0,19, 0.00,60.00,SummerDesignDay
9,2713062657.586935
16737,0.0
2,1, 8,21, 0,20, 0.00,60.00,SummerDesignDay
9,2631338067.4100184
16737,0.0
2,1, 8,21, 0,21, 0.00,60.00,SummerDesignDay
9,2588832719.655985
16737,0.0
2,1, 8,21, 0,22, 0.00,60.00,SummerDesignDay
9,2568818448.3862157
16737,0.0
2,1, 8,21, 0,23, 0.00,60.00,SummerDesignDay
9,2530026758.3536434
16737,0.0
2,1, 8,21, 0,24, 0.00,60.00,SummerDesignDay
9,2513806346.5578423
16737,325415.1439901863
1,MAXWELL AFB AUGUST .4% CONDNS WB=>MCDB 1 HVAC Sizing Pass 1,  32.38, -86.36,  -6.00,  52.00
2,1, 8,21, 0, 1, 0.00,60.00,SummerDesignDay
9,2537178199.342009
16737,38360256.137976296
2,1, 8,21, 0, 2, 0.00,60.00,SummerDesignDay
9,2519468714.1173115
16737,75078964.25875801
2,1, 8,21, 0, 3, 0.00,60.00,SummerDesignDay
9,2506275261.2466364
16737,114650582.87110981
2,1, 8,21, 0, 4, 0.00,60.00,SummerDesignDay
9,2494499647.40702
16737,152323877.0343585
2,1, 8,21, 0, 5, 0.00,60.00,SummerDesignDay
9,2487209679.2209344
16737,193303858.00859478
2,1, 8,21, 0, 6, 0.00,60.00,SummerDesignDay
9,2377225800.0917277
16737,0.0
2,1, 8,21, 0, 7, 0.00,60.00,SummerDesignDay
9,2420071256.5439
16737,0.0
2,1, 8,21, 0, 8, 0.00,60.00,SummerDesignDay
9,2672579587.639985
16737,35595604.028767794
2,1, 8,21, 0, 9, 0.00,60.00,SummerDesignDay
9,2887243415.067674
16737,2004503.90341871
2,1, 8,21, 0,10, 0.00,60.00,SummerDesignDay
9,2924055381.1246805
16737,0.0
2,1, 8,21, 0,11, 0.00,60.00,SummerDesignDay
9,2900897417.491327
16737,0.0
2,1, 8,21, 0,12, 0.00,60.00,SummerDesignDay
9,2853215703.6530647
16737,0.0
2,1, 8,21, 0,13, 0.00,60.00,SummerDesignDay
9,2876712185.729054
16737,0.0
2,1, 8,21, 0,14, 0.00,60.00,SummerDesignDay
9,2899161096.6125083
16737,0.0
2,1, 8,21, 0,15, 0.00,60.00,SummerDesignDay
9,3044426669.0073957
16737,0.0
2,1, 8,21, 0,16, 0.00,60.00,SummerDesignDay
9,3125843901.901205
16737,0.0
2,1, 8,21, 0,17, 0.00,60.00,SummerDesignDay
9,3172684202.583347
16737,0.0
2,1, 8,21, 0,18, 0.00,60.00,SummerDesignDay
9,2983606610.1796713
16737,0.0
2,1, 8,21, 0,19, 0.00,60.00,SummerDesignDay
9,2763069113.2044945
16737,0.0
2,1, 8,21, 0,20, 0.00,60.00,SummerDesignDay
9,2690168983.8066545
16737,0.0
2,1, 8,21, 0,21, 0.00,60.00,SummerDesignDay
9,2661580015.4425592
16737,0.0
2,1, 8,21, 0,22, 0.00,60.00,SummerDesignDay
9,2641015481.119406
16737,0.0
2,1, 8,21, 0,23, 0.00,60.00,SummerDesignDay
9,2599250632.2138505
16737,3320373.2462055064
2,1, 8,21, 0,24, 0.00,60.00,SummerDesignDay
9,2571098209.6256113
16737,14796839.635793433
1,MAXWELL AFB DECEMBER .4% CONDNS DB=>MCWB 1 HVAC Sizing Pass 1,  32.38, -86.36,  -6.00,  52.00
2,1,12,21, 0, 1, 0.00,60.00,SummerDesignDay
9,2338258143.739134
16737,589030218.5670323
2,1,12,21, 0, 2, 0.00,60.00,SummerDesignDay
9,2329902845.9301577
16737,653507803.4968597
2,1,12,21, 0, 3, 0.00,60.00,SummerDesignDay
9,2324144434.8784857
16737,708089531.988038
2,1,12,21, 0, 4, 0.00,60.00,SummerDesignDay
9,2318916554.5010185
16737,758257686.2623703
2,1,12,21, 0, 5, 0.00,60.00,SummerDesignDay
9,2316665561.125171
16737,801308381.6729295
2,1,12,21, 0, 6, 0.00,60.00,SummerDesignDay
9,2269992824.4942656
16737,0.0
2,1,12,21, 0, 7, 0.00,60.00,SummerDesignDay
9,2283580718.917205
16737,0.0
2,1,12,21, 0, 8, 0.00,60.00,SummerDesignDay
9,2330788979.8665824
16737,448393771.253484
2,1,12,21, 0, 9, 0.00,60.00,SummerDesignDay
9,2379746200.0049324
16737,293376770.5977387
2,1,12,21, 0,10, 0.00,60.00,SummerDesignDay
9,2444304455.263436
16737,215199000.31389967
2,1,12,21, 0,11, 0.00,60.00,SummerDesignDay
9,2495173751.3338356
16737,150431224.05900076
2,1,12,21, 0,12, 0.00,60.00,SummerDesignDay
9,2526985887.7020264
16737,93808821.34676316
2,1,12,21, 0,13, 0.00,60.00,SummerDesignDay
9,2559865658.10163
16737,2587189.5505772224
2,1,12,21, 0,14, 0.00,60.00,SummerDesignDay
9,2583039860.852853
16737,0.0
2,1,12,21, 0,15, 0.00,60.00,SummerDesignDay
9,2603922225.7263637
16737,0.0
2,1,12,21, 0,16, 0.00,60.00,SummerDesignDay
9,2610704801.243995
16737,0.0
2,1,12,21, 0,17, 0.00,60.00,SummerDesignDay
9,2467942008.8060207
16737,0.0
2,1,12,21, 0,18, 0.00,60.00,SummerDesignDay
9,2465853382.6405125
16737,1213964.5378195008
2,1,12,21, 0,19, 0.00,60.00,SummerDesignDay
9,2443061766.329749
16737,16259611.903964821
2,1,12,21, 0,20, 0.00,60.00,SummerDesignDay
9,2426069789.1340675
16737,50582727.36920061
2,1,12,21, 0,21, 0.00,60.00,SummerDesignDay
9,2415682121.7152343
16737,110017753.60160184
2,1,12,21, 0,22, 0.00,60.00,SummerDesignDay
9,2405339032.971481
16737,223779101.84171617
2,1,12,21, 0,23, 0.00,60.00,SummerDesignDay
9,2379328405.6052446
16737,424794712.52015793
2,1,12,21, 0,24, 0.00,60.00,SummerDesignDay
9,2358382406.885368
16737,508994298.43258923
1,MAXWELL AFB DECEMBER .4% CONDNS WB=>MCDB 1 HVAC Sizing Pass 1,  32.38, -86.36,  -6.00,  52.00
2,1,12,21, 0, 1, 0.00,60.00,SummerDesignDay
9,2317780543.13577
16737,674319954.4778353
2,1,12,21, 0, 2, 0.00,60.00,SummerDesignDay
9,2311319777.598425
16737,740931752.2542347
2,1,12,21, 0, 3, 0.00,60.00,SummerDesignDay
9,2309048554.8098073
16737,796517015.6353415
2,1,12,21, 0, 4, 0.00,60.00,SummerDesignDay
9,2305588961.0384226
16737,846007713.4076731
2,1,12,21, 0, 5, 0.00,60.00,SummerDesignDay
9,2306901738.1118817
16737,888515677.878693
2,1,12,21, 0, 6, 0.00,60.00,SummerDesignDay
9,2268488127.3519826
16737,0.0
2,1,12,21, 0, 7, 0.00,60.00,SummerDesignDay
9,2273485153.924127
16737,0.0
2,1,12,21, 0, 8, 0.00,60.00,SummerDesignDay
9,2302881146.76891
16737,522027461.2373857
2,1,12,21, 0, 9, 0.00,60.00,SummerDesignDay
9,2372882878.058132
16737,330110295.6528361
2,1,12,21, 0,10, 0.00,60.00,SummerDesignDay
9,2452557898.428718
16737,252532153.32285225
2,1,12,21, 0,11, 0.00,60.00,SummerDesignDay
9,2503689353.299398
16737,189166566.3113091
2,1,12,21, 0,12, 0.00,60.00,SummerDesignDay
9,2543800627.2529945
16737,133117496.53046823
2,1,12,21, 0,13, 0.00,60.00,SummerDesignDay
9,2576835365.2174435
16737,10680611.878797557
2,1,12,21, 0,14, 0.00,60.00,SummerDesignDay
9,2599537221.471382
16737,0.0
2,1,12,21, 0,15, 0.00,60.00,SummerDesignDay
9,2613104118.1887164
16737,0.0
2,1,12,21, 0,16, 0.00,60.00,SummerDesignDay
9,2617050917.5211587
16737,0.0
2,1,12,21, 0,17, 0.00,60.00,SummerDesignDay
9,2485883629.927079
16737,164685.08927084872
2,1,12,21, 0,18, 0.00,60.00,SummerDesignDay
9,2485960072.9003305
16737,12276323.560005195
2,1,12,21, 0,19, 0.00,60.00,SummerDesignDay
9,2461475047.957188
16737,34904336.41568973
2,1,12,21, 0,20, 0.00,60.00,SummerDesignDay
9,2429607897.9510736
16737,98048747.45777571
2,1,12,21, 0,21, 0.00,60.00,SummerDesignDay
9,2408164338.258412
16737,196851338.35194388
2,1,12,21, 0,22, 0.00,60.00,SummerDesignDay
9,2380910092.877743
16737,326060323.3845774
2,1,12,21, 0,23, 0.00,60.00,SummerDesignDay
9,2349419935.302297
16737,516978444.4389355
2,1,12,21, 0,24, 0.00,60.00,SummerDesignDay
9,2333960108.1193914
16737,593438281.8518163
1,MAXWELL AFB FEBRUARY .4% CONDNS DB=>MCWB 1 HVAC Sizing Pass 1,  32.38, -86.36,  -6.00,  52.00
2,1, 2,21, 0, 1, 0.00,60.00,SummerDesignDay
9,2324975586.475488
16737,542226837.4533405
2,1, 2,21, 0, 2, 0.00,60.00,SummerDesignDay
9,2318076596.5280685
16737,621640050.2475752
2,1, 2,21, 0, 3, 0.00,60.00,SummerDesignDay
9,2313860682.727564
16737,686371495.4155887
2,1, 2,21, 0, 4, 0.00,60.00,SummerDesignDay
9,2309401221.67209
16737,744827777.6217911
2,1, 2,21, 0, 5, 0.00,60.00,SummerDesignDay
9,2309540829.6158867
16737,795812665.5390207
2,1, 2,21, 0, 6, 0.00,60.00,SummerDesignDay
9,2267267533.014419
16737,0.0
2,1, 2,21, 0, 7, 0.00,60.00,SummerDesignDay
9,2223700331.637758
16737,0.0
2,1, 2,21, 0, 8, 0.00,60.00,SummerDesignDay
9,2301203052.847695
16737,418192677.46564084
2,1, 2,21, 0, 9, 0.00,60.00,SummerDesignDay
9,2380980969.971301
16737,279602791.94666064
2,1, 2,21, 0,10, 0.00,60.00,SummerDesignDay
9,2456147640.5037746
16737,182608429.33746165
2,1, 2,21, 0,11, 0.00,60.00,SummerDesignDay
9,2499606125.6674843
16737,110683879.37646243
2,1, 2,21, 0,12, 0.00,60.00,SummerDesignDay
9,2493007082.683502
16737,52968404.66322981
2,1, 2,21, 0,13, 0.00,60.00,SummerDesignDay
9,2503958397.9359627
16737,313031.6573088345
2,1, 2,21, 0,14, 0.00,60.00,SummerDesignDay
9,2529639012.4086413
16737,0.0
2,1, 2,21, 0,15, 0.00,60.00,SummerDesignDay
9,2578209662.3776083
16737,0.0
2,1, 2,21, 0,16, 0.00,60.00,SummerDesignDay
9,2644809731.3962502
16737,0.0
2,1, 2,21, 0,17, 0.00,60.00,SummerDesignDay
9,2611970889.4875093
16737,0.0
2,1, 2,21, 0,18, 0.00,60.00,SummerDesignDay
9,2409414725.9771366
16737,0.0
2,1, 2,21, 0,19, 0.00,60.00,SummerDesignDay
9,2417729613.230401
16737,1450914.962057367
2,1, 2,21, 0,20, 0.00,60.00,SummerDesignDay
9,2398226417.69526
16737,14903636.982498577
2,1, 2,21, 0,21, 0.00,60.00,SummerDesignDay
9,2383959220.6315947
16737,51762227.318183005
2,1, 2,21, 0,22, 0.00,60.00,SummerDesignDay
9,2373748807.6108513
16737,112022433.96446179