Program Version,EnergyPlus, Version 23.2.0-7636e6b3e9, YMD=2024.01.24 11:09
1,5,Environment Title[],Latitude[deg],Longitude[deg],Time Zone[],Elevation[m]
2,8,Day of Simulation[],Month[],Day of Month[],DST Indicator[1=yes 0=no],Hour[],StartMinute[],EndMinute[],DayType
3,5,Cumulative Day of Simulation[],Month[],Day of Month[],DST Indicator[1=yes 0=no],DayType  ! When Daily Report Variables Requested
4,2,Cumulative Days of Simulation[],Month[]  ! When Monthly Report Variables Requested
5,1,Cumulative Days of Simulation[] ! When Run Period Report Variables Requested
6,1,Calendar Year of Simulation[] ! When Annual Report Variables Requested
8,1,Electricity:Facility [J] !TimeStep
16622,1,NaturalGas:Facility [J] !TimeStep
End of Data Dictionary
1,MAXWELL AFB ANN CLG .4% CONDNS DB=>MWB 1 HVAC Sizing Pass 1,  32.38, -86.36,  -6.00,  52.00
2,1, 7,21, 0, 1, 0.00,15.00,SummerDesignDay
8,749629771.7104847
16622,0.0
2,1, 7,21, 0, 1,15.00,30.00,SummerDesignDay
8,749402036.5513389
16622,0.0
2,1, 7,21, 0, 1,30.00,45.00,SummerDesignDay
8,748930127.4954634
16622,0.0
2,1, 7,21, 0, 1,45.00,60.00,SummerDesignDay
8,748537635.641325
16622,0.0
2,1, 7,21, 0, 2, 0.00,15.00,SummerDesignDay
8,748228684.9995682
16622,0.0
2,1, 7,21, 0, 2,15.00,30.00,SummerDesignDay
8,747933955.464874
16622,0.0
2,1, 7,21, 0, 2,30.00,45.00,SummerDesignDay
8,747643291.6794472
16622,0.0
2,1, 7,21, 0, 2,45.00,60.00,SummerDesignDay
8,747352545.7887857
16622,0.0
2,1, 7,21, 0, 3, 0.00,15.00,SummerDesignDay
8,747097022.1931732
16622,0.0
2,1, 7,21, 0, 3,15.00,30.00,SummerDesignDay
8,746850363.2211249
16622,0.0
2,1, 7,21, 0, 3,30.00,45.00,SummerDesignDay
8,746607413.3120258
16622,0.0
2,1, 7,21, 0, 3,45.00,60.00,SummerDesignDay
8,746366113.2801583
16622,0.0
2,1, 7,21, 0, 4, 0.00,15.00,SummerDesignDay
8,746125724.8246124
16622,0.0
2,1, 7,21, 0, 4,15.00,30.00,SummerDesignDay
8,745886337.3969316
16622,0.0
2,1, 7,21, 0, 4,30.00,45.00,SummerDesignDay
8,745648116.0255654
16622,0.0
2,1, 7,21, 0, 4,45.00,60.00,SummerDesignDay
8,745410857.0324984
16622,0.0
2,1, 7,21, 0, 5, 0.00,15.00,SummerDesignDay
8,745209874.320811
16622,0.0
2,1, 7,21, 0, 5,15.00,30.00,SummerDesignDay
8,745018464.1854844
16622,0.0
2,1, 7,21, 0, 5,30.00,45.00,SummerDesignDay
8,744830895.4631557
16622,0.0
2,1, 7,21, 0, 5,45.00,60.00,SummerDesignDay
8,703464178.8608439
16622,0.0
2,1, 7,21, 0, 6, 0.00,15.00,SummerDesignDay
8,704010513.9365435
16622,0.0
2,1, 7,21, 0, 6,15.00,30.00,SummerDesignDay
8,705266594.3833706
16622,0.0
2,1, 7,21, 0, 6,30.00,45.00,SummerDesignDay
8,706805039.3674839
16622,0.0
2,1, 7,21, 0, 6,45.00,60.00,SummerDesignDay
8,708539658.8043749
16622,0.0
2,1, 7,21, 0, 7, 0.00,15.00,SummerDesignDay
8,784853758.7553594
16622,0.0
2,1, 7,21, 0, 7,15.00,30.00,SummerDesignDay
8,783411443.1834965
16622,0.0
2,1, 7,21, 0, 7,30.00,45.00,SummerDesignDay
8,787984267.5643597
16622,0.0
2,1, 7,21, 0, 7,45.00,60.00,SummerDesignDay
8,784250357.4117544
16622,0.0
2,1, 7,21, 0, 8, 0.00,15.00,SummerDesignDay
8,794864373.996773
16622,0.0
2,1, 7,21, 0, 8,15.00,30.00,SummerDesignDay
8,799354755.4404645
16622,0.0
2,1, 7,21, 0, 8,30.00,45.00,SummerDesignDay
8,805897370.394059
16622,0.0
2,1, 7,21, 0, 8,45.00,60.00,SummerDesignDay
8,811205217.0131009
16622,0.0
2,1, 7,21, 0, 9, 0.00,15.00,SummerDesignDay
8,814889437.7896831
16622,0.0
2,1, 7,21, 0, 9,15.00,30.00,SummerDesignDay
8,820969607.0825222
16622,0.0
2,1, 7,21, 0, 9,30.00,45.00,SummerDesignDay
8,822550156.5407114
16622,0.0
2,1, 7,21, 0, 9,45.00,60.00,SummerDesignDay
8,826395332.802573
16622,0.0
2,1, 7,21, 0,10, 0.00,15.00,SummerDesignDay
8,828307975.0656133
16622,0.0
2,1, 7,21, 0,10,15.00,30.00,SummerDesignDay
8,829605708.4887822
16622,0.0
2,1, 7,21, 0,10,30.00,45.00,SummerDesignDay
8,832510617.7624462
16622,0.0
2,1, 7,21, 0,10,45.00,60.00,SummerDesignDay
8,831684999.4917667
16622,0.0
2,1, 7,21, 0,11, 0.00,15.00,SummerDesignDay
8,833264568.0041149
16622,0.0
2,1, 7,21, 0,11,15.00,30.00,SummerDesignDay
8,831978397.3398788
16622,0.0
2,1, 7,21, 0,11,30.00,45.00,SummerDesignDay
8,830685592.6187258
16622,0.0
2,1, 7,21, 0,11,45.00,60.00,SummerDesignDay
8,830134259.1979055
16622,0.0
2,1, 7,21, 0,12, 0.00,15.00,SummerDesignDay
8,826055228.385355
16622,0.0
2,1, 7,21, 0,12,15.00,30.00,SummerDesignDay
8,825632063.3718169
16622,0.0
2,1, 7,21, 0,12,30.00,45.00,SummerDesignDay
8,823174957.1014299
16622,0.0
2,1, 7,21, 0,12,45.00,60.00,SummerDesignDay
8,824405524.966181
16622,0.0
2,1, 7,21, 0,13, 0.00,15.00,SummerDesignDay
8,827622776.3154998
16622,0.0
2,1, 7,21, 0,13,15.00,30.00,SummerDesignDay
8,831075626.7289162
16622,0.0
2,1, 7,21, 0,13,30.00,45.00,SummerDesignDay
8,838477188.5779519
16622,0.0
2,1, 7,21, 0,13,45.00,60.00,SummerDesignDay
8,842842646.1921899
16622,0.0
2,1, 7,21, 0,14, 0.00,15.00,SummerDesignDay
8,850725318.3008821
16622,0.0
2,1, 7,21, 0,14,15.00,30.00,SummerDesignDay
8,856134513.7622635
16622,0.0
2,1, 7,21, 0,14,30.00,45.00,SummerDesignDay
8,864209933.1828635
16622,0.0
2,1, 7,21, 0,14,45.00,60.00,SummerDesignDay
8,871883720.9034817
16622,0.0
2,1, 7,21, 0,15, 0.00,15.00,SummerDesignDay
8,876781393.3460016
16622,0.0
2,1, 7,21, 0,15,15.00,30.00,SummerDesignDay
8,884356140.9007754
16622,0.0
2,1, 7,21, 0,15,30.00,45.00,SummerDesignDay
8,887906966.4269769
16622,0.0
2,1, 7,21, 0,15,45.00,60.00,SummerDesignDay
8,894050678.3855457
16622,0.0
2,1, 7,21, 0,16, 0.00,15.00,SummerDesignDay
8,896855382.2012243
16622,0.0
2,1, 7,21, 0,16,15.00,30.00,SummerDesignDay
8,898553875.9669881
16622,0.0
2,1, 7,21, 0,16,30.00,45.00,SummerDesignDay
8,901509260.8588781
16622,0.0
2,1, 7,21, 0,16,45.00,60.00,SummerDesignDay
8,900122657.1719456
16622,0.0
2,1, 7,21, 0,17, 0.00,15.00,SummerDesignDay
8,901041710.1316187
16622,0.0
2,1, 7,21, 0,17,15.00,30.00,SummerDesignDay
8,897958397.4263632
16622,0.0
2,1, 7,21, 0,17,30.00,45.00,SummerDesignDay
8,894360091.5235939
16622,0.0
2,1, 7,21, 0,17,45.00,60.00,SummerDesignDay
8,889974050.9222665
16622,0.0
2,1, 7,21, 0,18, 0.00,15.00,SummerDesignDay
8,880839987.7919121
16622,0.0
2,1, 7,21, 0,18,15.00,30.00,SummerDesignDay
8,873505001.4376056
16622,0.0
2,1, 7,21, 0,18,30.00,45.00,SummerDesignDay
8,859886557.3720291
16622,0.0
2,1, 7,21, 0,18,45.00,60.00,SummerDesignDay
8,847613587.3872457
16622,0.0
2,1, 7,21, 0,19, 0.00,15.00,SummerDesignDay
8,832480194.9821472
16622,0.0
2,1, 7,21, 0,19,15.00,30.00,SummerDesignDay
8,812850333.071383
16622,0.0
2,1, 7,21, 0,19,30.00,45.00,SummerDesignDay
8,797815266.554362
16622,0.0
2,1, 7,21, 0,19,45.00,60.00,SummerDesignDay
8,827336947.2167928
16622,0.0
2,1, 7,21, 0,20, 0.00,15.00,SummerDesignDay
8,822505118.9477956
16622,0.0
2,1, 7,21, 0,20,15.00,30.00,SummerDesignDay
8,816682196.0864949
16622,0.0
2,1, 7,21, 0,20,30.00,45.00,SummerDesignDay
8,811547625.8016074
16622,0.0
2,1, 7,21, 0,20,45.00,60.00,SummerDesignDay
8,808502464.8662946
16622,0.0
2,1, 7,21, 0,21, 0.00,15.00,SummerDesignDay
8,803124519.0219057
16622,0.0
2,1, 7,21, 0,21,15.00,30.00,SummerDesignDay
8,802287392.8265691
16622,0.0
2,1, 7,21, 0,21,30.00,45.00,SummerDesignDay
8,798154008.1779943
16622,0.0
2,1, 7,21, 0,21,45.00,60.00,SummerDesignDay
8,796132687.6399047
16622,0.0
2,1, 7,21, 0,22, 0.00,15.00,SummerDesignDay
8,793950033.9491112
16622,0.0
2,1, 7,21, 0,22,15.00,30.00,SummerDesignDay
8,790853868.6701422
16622,0.0
2,1, 7,21, 0,22,30.00,45.00,SummerDesignDay
8,790543057.0452015
16622,0.0
2,1, 7,21, 0,22,45.00,60.00,SummerDesignDay
8,786885682.7292321
16622,0.0
2,1, 7,21, 0,23, 0.00,15.00,SummerDesignDay
8,754300697.961055
16622,0.0
2,1, 7,21, 0,23,15.00,30.00,SummerDesignDay
8,753148250.3422253
16622,0.0
2,1, 7,21, 0,23,30.00,45.00,SummerDesignDay
8,753489196.3463838
16622,0.0
2,1, 7,21, 0,23,45.00,60.00,SummerDesignDay
8,753144788.1129744
16622,0.0
2,1, 7,21, 0,24, 0.00,15.00,SummerDesignDay
8,752398415.4062665
16622,0.0
2,1, 7,21, 0,24,15.00,30.00,SummerDesignDay
8,753109897.6754572
16622,0.0
2,1, 7,21, 0,24,30.00,45.00,SummerDesignDay
8,750646386.1996047
16622,0.0
2,1, 7,21, 0,24,45.00,60.00,SummerDesignDay
8,752155769.7489576
16622,0.0
1,MAXWELL AFB ANN CLG .4% CONDNS WB=>MDB 1 HVAC Sizing Pass 1,  32.38, -86.36,  -6.00,  52.00
2,1, 7,21, 0, 1, 0.00,15.00,SummerDesignDay
8,761724757.9525876
16622,0.0
2,1, 7,21, 0, 1,15.00,30.00,SummerDesignDay
8,759512825.767468
16622,0.0
2,1, 7,21, 0, 1,30.00,45.00,SummerDesignDay
8,757749320.1919267
16622,0.0
2,1, 7,21, 0, 1,45.00,60.00,SummerDesignDay
8,756377035.2443833
16622,0.0
2,1, 7,21, 0, 2, 0.00,15.00,SummerDesignDay
8,755325465.1274948
16622,0.0
2,1, 7,21, 0, 2,15.00,30.00,SummerDesignDay
8,754351327.5393775
16622,0.0
2,1, 7,21, 0, 2,30.00,45.00,SummerDesignDay
8,753416601.491353
16622,0.0
2,1, 7,21, 0, 2,45.00,60.00,SummerDesignDay
8,752507722.3881578
16622,0.0
2,1, 7,21, 0, 3, 0.00,15.00,SummerDesignDay
8,751748707.8144128
16622,0.0
2,1, 7,21, 0, 3,15.00,30.00,SummerDesignDay
8,751028724.7827249
16622,0.0
2,1, 7,21, 0, 3,30.00,45.00,SummerDesignDay
8,750332891.4185369
16622,0.0
2,1, 7,21, 0, 3,45.00,60.00,SummerDesignDay
8,749657247.5562668
16622,0.0
2,1, 7,21, 0, 4, 0.00,15.00,SummerDesignDay
8,748986778.2280831
16622,0.0
2,1, 7,21, 0, 4,15.00,30.00,SummerDesignDay
8,748327474.6364167
16622,0.0
2,1, 7,21, 0, 4,30.00,45.00,SummerDesignDay
8,747675823.3823984
16622,0.0
2,1, 7,21, 0, 4,45.00,60.00,SummerDesignDay
8,747031782.1940207
16622,0.0
2,1, 7,21, 0, 5, 0.00,15.00,SummerDesignDay
8,746518713.646215
16622,0.0
2,1, 7,21, 0, 5,15.00,30.00,SummerDesignDay
8,746038267.9381824
16622,0.0
2,1, 7,21, 0, 5,30.00,45.00,SummerDesignDay
8,745574189.9284983
16622,0.0
2,1, 7,21, 0, 5,45.00,60.00,SummerDesignDay
8,703924324.8967907
16622,0.0
2,1, 7,21, 0, 6, 0.00,15.00,SummerDesignDay
8,704478809.834851
16622,0.0
2,1, 7,21, 0, 6,15.00,30.00,SummerDesignDay
8,705760242.2766721
16622,0.0
2,1, 7,21, 0, 6,30.00,45.00,SummerDesignDay
8,707266372.1949553
16622,0.0
2,1, 7,21, 0, 6,45.00,60.00,SummerDesignDay
8,709242899.6588726
16622,0.0
2,1, 7,21, 0, 7, 0.00,15.00,SummerDesignDay
8,769673857.6278414
16622,0.0
2,1, 7,21, 0, 7,15.00,30.00,SummerDesignDay
8,771098758.6889613
16622,0.0
2,1, 7,21, 0, 7,30.00,45.00,SummerDesignDay
8,773253889.6698604
16622,0.0
2,1, 7,21, 0, 7,45.00,60.00,SummerDesignDay
8,777781938.3216162
16622,0.0
2,1, 7,21, 0, 8, 0.00,15.00,SummerDesignDay
8,789530135.199758
16622,0.0
2,1, 7,21, 0, 8,15.00,30.00,SummerDesignDay
8,797220280.1429188
16622,0.0
2,1, 7,21, 0, 8,30.00,45.00,SummerDesignDay
8,809009054.9973633
16622,0.0
2,1, 7,21, 0, 8,45.00,60.00,SummerDesignDay
8,818078213.0249763
16622,0.0
2,1, 7,21, 0, 9, 0.00,15.00,SummerDesignDay
8,823305617.7192814
16622,0.0
2,1, 7,21, 0, 9,15.00,30.00,SummerDesignDay
8,830343274.935344
16622,0.0
2,1, 7,21, 0, 9,30.00,45.00,SummerDesignDay
8,832416997.2034023
16622,0.0
2,1, 7,21, 0, 9,45.00,60.00,SummerDesignDay
8,836704750.3971334
16622,0.0
2,1, 7,21, 0,10, 0.00,15.00,SummerDesignDay
8,838706133.0196047
16622,0.0
2,1, 7,21, 0,10,15.00,30.00,SummerDesignDay
8,839554411.5000854
16622,0.0
2,1, 7,21, 0,10,30.00,45.00,SummerDesignDay
8,841961783.1234896
16622,0.0
2,1, 7,21, 0,10,45.00,60.00,SummerDesignDay
8,840196500.2894695
16622,0.0
2,1, 7,21, 0,11, 0.00,15.00,SummerDesignDay
8,840702019.2973082
16622,0.0
2,1, 7,21, 0,11,15.00,30.00,SummerDesignDay
8,839252381.5226104
16622,0.0
2,1, 7,21, 0,11,30.00,45.00,SummerDesignDay
8,837804358.7973437
16622,0.0
2,1, 7,21, 0,11,45.00,60.00,SummerDesignDay
8,837910894.505635
16622,0.0
2,1, 7,21, 0,12, 0.00,15.00,SummerDesignDay
8,833651144.5302191
16622,0.0
2,1, 7,21, 0,12,15.00,30.00,SummerDesignDay
8,833722638.4561636
16622,0.0
2,1, 7,21, 0,12,30.00,45.00,SummerDesignDay
8,831877427.4191029
16622,0.0
2,1, 7,21, 0,12,45.00,60.00,SummerDesignDay
8,833347631.5189497
16622,0.0
2,1, 7,21, 0,13, 0.00,15.00,SummerDesignDay
8,836855814.1388953
16622,0.0
2,1, 7,21, 0,13,15.00,30.00,SummerDesignDay
8,841299126.663146
16622,0.0
2,1, 7,21, 0,13,30.00,45.00,SummerDesignDay
8,849273810.625458
16622,0.0
2,1, 7,21, 0,13,45.00,60.00,SummerDesignDay
8,854237260.1277089
16622,0.0
2,1, 7,21, 0,14, 0.00,15.00,SummerDesignDay
8,862434403.1855955
16622,0.0
2,1, 7,21, 0,14,15.00,30.00,SummerDesignDay
8,868156931.8360322
16622,0.0
2,1, 7,21, 0,14,30.00,45.00,SummerDesignDay
8,876202257.0818281
16622,0.0
2,1, 7,21, 0,14,45.00,60.00,SummerDesignDay
8,884007911.9316146
16622,0.0
2,1, 7,21, 0,15, 0.00,15.00,SummerDesignDay
8,888375080.6319239
16622,0.0
2,1, 7,21, 0,15,15.00,30.00,SummerDesignDay
8,895506013.1409302
16622,0.0
2,1, 7,21, 0,15,30.00,45.00,SummerDesignDay
8,898719975.5325811
16622,0.0
2,1, 7,21, 0,15,45.00,60.00,SummerDesignDay
8,904639688.1763539
16622,0.0
2,1, 7,21, 0,16, 0.00,15.00,SummerDesignDay
8,905665620.0284016
16622,0.0
2,1, 7,21, 0,16,15.00,30.00,SummerDesignDay
8,905918810.9795804
16622,0.0
2,1, 7,21, 0,16,30.00,45.00,SummerDesignDay
8,907749287.9887676
16622,0.0
2,1, 7,21, 0,16,45.00,60.00,SummerDesignDay
8,905426253.5228732
16622,0.0
2,1, 7,21, 0,17, 0.00,15.00,SummerDesignDay
8,905460743.7940824
16622,0.0
2,1, 7,21, 0,17,15.00,30.00,SummerDesignDay
8,901826688.6753778
16622,0.0
2,1, 7,21, 0,17,30.00,45.00,SummerDesignDay
8,897892925.5769498
16622,0.0
2,1, 7,21, 0,17,45.00,60.00,SummerDesignDay
8,893490107.851224
16622,0.0
2,1, 7,21, 0,18, 0.00,15.00,SummerDesignDay
8,884671123.2430332
16622,0.0
2,1, 7,21, 0,18,15.00,30.00,SummerDesignDay
8,877874675.0337908
16622,0.0
2,1, 7,21, 0,18,30.00,45.00,SummerDesignDay
8,864996633.2957819
16622,0.0
2,1, 7,21, 0,18,45.00,60.00,SummerDesignDay
8,853574460.604836
16622,0.0
2,1, 7,21, 0,19, 0.00,15.00,SummerDesignDay
8,839650938.4459624
16622,0.0
2,1, 7,21, 0,19,15.00,30.00,SummerDesignDay
8,821522200.2674983
16622,0.0
2,1, 7,21, 0,19,30.00,45.00,SummerDesignDay
8,808176740.2566745
16622,0.0
2,1, 7,21, 0,19,45.00,60.00,SummerDesignDay
8,838930672.7398558
16622,0.0
2,1, 7,21, 0,20, 0.00,15.00,SummerDesignDay
8,835391071.9764576
16622,0.0
2,1, 7,21, 0,20,15.00,30.00,SummerDesignDay
8,830559203.2318404
16622,0.0
2,1, 7,21, 0,20,30.00,45.00,SummerDesignDay
8,827294483.7414882
16622,0.0
2,1, 7,21, 0,20,45.00,60.00,SummerDesignDay
8,825317209.8268719
16622,0.0
2,1, 7,21, 0,21, 0.00,15.00,SummerDesignDay
8,821200418.4060886
16622,0.0
2,1, 7,21, 0,21,15.00,30.00,SummerDesignDay
8,820587837.0742671
16622,0.0
2,1, 7,21, 0,21,30.00,45.00,SummerDesignDay
8,816634316.3998213
16622,0.0
2,1, 7,21, 0,21,45.00,60.00,SummerDesignDay
8,815460660.6168594
16622,0.0
2,1, 7,21, 0,22, 0.00,15.00,SummerDesignDay
8,814142992.5585802
16622,0.0
2,1, 7,21, 0,22,15.00,30.00,SummerDesignDay
8,811485492.9101112
16622,0.0
2,1, 7,21, 0,22,30.00,45.00,SummerDesignDay
8,811345085.7271931
16622,0.0
2,1, 7,21, 0,22,45.00,60.00,SummerDesignDay
8,807586517.3638148
16622,0.0
2,1, 7,21, 0,23, 0.00,15.00,SummerDesignDay
8,774708667.1080816
16622,0.0
2,1, 7,21, 0,23,15.00,30.00,SummerDesignDay
8,773765142.1163411
16622,0.0
2,1, 7,21, 0,23,30.00,45.00,SummerDesignDay
8,774097890.7304528
16622,0.0
2,1, 7,21, 0,23,45.00,60.00,SummerDesignDay
8,773260894.0594873
16622,0.0
2,1, 7,21, 0,24, 0.00,15.00,SummerDesignDay
8,771164036.2374625
16622,0.0
2,1, 7,21, 0,24,15.00,30.00,SummerDesignDay
8,770411888.4880967
16622,0.0
2,1, 7,21, 0,24,30.00,45.00,SummerDesignDay
8,766267752.7057154
16622,0.0
2,1, 7,21, 0,24,45.00,60.00,SummerDesignDay
8,765991970.7018182
16622,0.0
1,MAXWELL AFB ANN CLG 1% CONDNS DB=>MWB 1 HVAC Sizing Pass 1,  32.38, -86.36,  -6.00,  52.00
2,1, 7,21, 0, 1, 0.00,15.00,SummerDesignDay
8,748936318.3511932
16622,0.0
2,1, 7,21, 0, 1,15.00,30.00,SummerDesignDay
8,748420045.3509288
16622,0.0
2,1, 7,21, 0, 1,30.00,45.00,SummerDesignDay
8,747914318.3669004
16622,0.0
2,1, 7,21, 0, 1,45.00,60.00,SummerDesignDay
8,747441961.5297146
16622,0.0
2,1, 7,21, 0, 2, 0.00,15.00,SummerDesignDay
8,747188592.7797143
16622,0.0
2,1, 7,21, 0, 2,15.00,30.00,SummerDesignDay
8,746870550.180556
16622,0.0
2,1, 7,21, 0, 2,30.00,45.00,SummerDesignDay
8,746574857.604852
16622,0.0
2,1, 7,21, 0, 2,45.00,60.00,SummerDesignDay
8,746285526.6275222
16622,0.0
2,1, 7,21, 0, 3, 0.00,15.00,SummerDesignDay
8,746027049.0795121
16622,0.0
2,1, 7,21, 0, 3,15.00,30.00,SummerDesignDay
8,745776436.9953601
16622,0.0
2,1, 7,21, 0, 3,30.00,45.00,SummerDesignDay
8,745529230.6990197
16622,0.0
2,1, 7,21, 0, 3,45.00,60.00,SummerDesignDay
8,745283438.8619885
16622,0.0
2,1, 7,21, 0, 4, 0.00,15.00,SummerDesignDay
8,745038533.977073
16622,0.0
2,1, 7,21, 0, 4,15.00,30.00,SummerDesignDay
8,744794775.338175
16622,0.0
2,1, 7,21, 0, 4,30.00,45.00,SummerDesignDay
8,744552241.7866261
16622,0.0
2,1, 7,21, 0, 4,45.00,60.00,SummerDesignDay
8,744310841.2774646
16622,0.0
2,1, 7,21, 0, 5, 0.00,15.00,SummerDesignDay
8,744105672.4363217
16622,0.0
2,1, 7,21, 0, 5,15.00,30.00,SummerDesignDay
8,743910001.4950206
16622,0.0
2,1, 7,21, 0, 5,30.00,45.00,SummerDesignDay
8,743718274.2269552
16622,0.0
2,1, 7,21, 0, 5,45.00,60.00,SummerDesignDay
8,702345876.0352585
16622,0.0
2,1, 7,21, 0, 6, 0.00,15.00,SummerDesignDay
8,702876680.208817
16622,0.0
2,1, 7,21, 0, 6,15.00,30.00,SummerDesignDay
8,704110963.7275805
16622,0.0
2,1, 7,21, 0, 6,30.00,45.00,SummerDesignDay
8,705628357.124012
16622,0.0
2,1, 7,21, 0, 6,45.00,60.00,SummerDesignDay
8,707342757.3988118
16622,0.0
2,1, 7,21, 0, 7, 0.00,15.00,SummerDesignDay
8,777069479.7855195
16622,0.0
2,1, 7,21, 0, 7,15.00,30.00,SummerDesignDay
8,776545921.8483613
16622,0.0
2,1, 7,21, 0, 7,30.00,45.00,SummerDesignDay
8,776621739.075305
16622,0.0
2,1, 7,21, 0, 7,45.00,60.00,SummerDesignDay
8,778827074.8532615
16622,0.0
2,1, 7,21, 0, 8, 0.00,15.00,SummerDesignDay
8,789068934.5709555
16622,0.0
2,1, 7,21, 0, 8,15.00,30.00,SummerDesignDay
8,793518432.1451621
16622,0.0
2,1, 7,21, 0, 8,30.00,45.00,SummerDesignDay
8,800102962.3099658
16622,0.0
2,1, 7,21, 0, 8,45.00,60.00,SummerDesignDay
8,805337217.1181076
16622,0.0
2,1, 7,21, 0, 9, 0.00,15.00,SummerDesignDay
8,808972680.7621989
16622,0.0
2,1, 7,21, 0, 9,15.00,30.00,SummerDesignDay
8,814963395.7589421
16622,0.0
2,1, 7,21, 0, 9,30.00,45.00,SummerDesignDay
8,816483586.5711873
16622,0.0
2,1, 7,21, 0, 9,45.00,60.00,SummerDesignDay
8,820327755.2253213
16622,0.0
2,1, 7,21, 0,10, 0.00,15.00,SummerDesignDay
8,821803023.3877883
16622,0.0
2,1, 7,21, 0,10,15.00,30.00,SummerDesignDay
8,822378747.7268064
16622,0.0
2,1, 7,21, 0,10,30.00,45.00,SummerDesignDay
8,824832829.2959449
16622,0.0
2,1, 7,21, 0,10,45.00,60.00,SummerDesignDay
8,823358216.7524948
16622,0.0
2,1, 7,21, 0,11, 0.00,15.00,SummerDesignDay
8,823865579.1224763
16622,0.0
2,1, 7,21, 0,11,15.00,30.00,SummerDesignDay
8,822101609.9425364
16622,0.0
2,1, 7,21, 0,11,30.00,45.00,SummerDesignDay
8,821141017.0625961
16622,0.0
2,1, 7,21, 0,11,45.00,60.00,SummerDesignDay
8,820798368.8309836
16622,0.0
2,1, 7,21, 0,12, 0.00,15.00,SummerDesignDay
8,817092988.3152645
16622,0.0
2,1, 7,21, 0,12,15.00,30.00,SummerDesignDay
8,816953345.7872946
16622,0.0
2,1, 7,21, 0,12,30.00,45.00,SummerDesignDay
8,814777345.3080952
16622,0.0
2,1, 7,21, 0,12,45.00,60.00,SummerDesignDay
8,816421996.1061721
16622,0.0
2,1, 7,21, 0,13, 0.00,15.00,SummerDesignDay
8,819953234.5477688
16622,0.0
2,1, 7,21, 0,13,15.00,30.00,SummerDesignDay
8,823376455.2040455
16622,0.0
2,1, 7,21, 0,13,30.00,45.00,SummerDesignDay
8,830611200.0568507
16622,0.0
2,1, 7,21, 0,13,45.00,60.00,SummerDesignDay
8,834807726.2370353
16622,0.0
2,1, 7,21, 0,14, 0.00,15.00,SummerDesignDay
8,842509629.8814383
16622,0.0
2,1, 7,21, 0,14,15.00,30.00,SummerDesignDay
8,847684014.1216373
16622,0.0
2,1, 7,21, 0,14,30.00,45.00,SummerDesignDay
8,855202917.87375
16622,0.0
2,1, 7,21, 0,14,45.00,60.00,SummerDesignDay
8,862221030.6245978
16622,0.0
2,1, 7,21, 0,15, 0.00,15.00,SummerDesignDay
8,866574961.1341658
16622,0.0
2,1, 7,21, 0,15,15.00,30.00,SummerDesignDay
8,873926556.7575381
16622,0.0
2,1, 7,21, 0,15,30.00,45.00,SummerDesignDay
8,877271572.6584895
16622,0.0
2,1, 7,21, 0,15,45.00,60.00,SummerDesignDay
8,883262616.6294503
16622,0.0
2,1, 7,21, 0,16, 0.00,15.00,SummerDesignDay
8,885925419.9976454
16622,0.0
2,1, 7,21, 0,16,15.00,30.00,SummerDesignDay
8,887568414.8662682
16622,0.0
2,1, 7,21, 0,16,30.00,45.00,SummerDesignDay
8,890457500.4579439
16622,0.0
2,1, 7,21, 0,16,45.00,60.00,SummerDesignDay
8,889074635.4876199
16622,0.0
2,1, 7,21, 0,17, 0.00,15.00,SummerDesignDay
8,890063308.9211736
16622,0.0
2,1, 7,21, 0,17,15.00,30.00,SummerDesignDay
8,887074722.7633646
16622,0.0
2,1, 7,21, 0,17,30.00,45.00,SummerDesignDay
8,883687987.6839571
16622,0.0
2,1, 7,21, 0,17,45.00,60.00,SummerDesignDay
8,879531418.3995321
16622,0.0
2,1, 7,21, 0,18, 0.00,15.00,SummerDesignDay
8,870760562.7696943
16622,0.0
2,1, 7,21, 0,18,15.00,30.00,SummerDesignDay
8,863826585.0259104
16622,0.0
2,1, 7,21, 0,18,30.00,45.00,SummerDesignDay
8,850714382.1733036
16622,0.0
2,1, 7,21, 0,18,45.00,60.00,SummerDesignDay
8,839004749.8024683
16622,0.0
2,1, 7,21, 0,19, 0.00,15.00,SummerDesignDay
8,824454291.3396213
16622,0.0
2,1, 7,21, 0,19,15.00,30.00,SummerDesignDay
8,805601400.7341263
16622,0.0
2,1, 7,21, 0,19,30.00,45.00,SummerDesignDay
8,791424169.2288399
16622,0.0
2,1, 7,21, 0,19,45.00,60.00,SummerDesignDay
8,821321938.5825369
16622,0.0
2,1, 7,21, 0,20, 0.00,15.00,SummerDesignDay
8,816800097.0419488
16622,0.0
2,1, 7,21, 0,20,15.00,30.00,SummerDesignDay
8,811348464.5300076
16622,0.0
2,1, 7,21, 0,20,30.00,45.00,SummerDesignDay
8,806570907.9499469
16622,0.0
2,1, 7,21, 0,20,45.00,60.00,SummerDesignDay
8,803936506.4594774
16622,0.0
2,1, 7,21, 0,21, 0.00,15.00,SummerDesignDay
8,799043812.52209
16622,0.0
2,1, 7,21, 0,21,15.00,30.00,SummerDesignDay
8,798204903.454819
16622,0.0
2,1, 7,21, 0,21,30.00,45.00,SummerDesignDay
8,794199245.631383
16622,0.0
2,1, 7,21, 0,21,45.00,60.00,SummerDesignDay
8,792635926.4814284
16622,0.0
2,1, 7,21, 0,22, 0.00,15.00,SummerDesignDay
8,790961052.0991657
16622,0.0
2,1, 7,21, 0,22,15.00,30.00,SummerDesignDay
8,788205926.0706182
16622,0.0
2,1, 7,21, 0,22,30.00,45.00,SummerDesignDay
8,788313576.3572078
16622,0.0
2,1, 7,21, 0,22,45.00,60.00,SummerDesignDay
8,785201980.5187845
16622,0.0
2,1, 7,21, 0,23, 0.00,15.00,SummerDesignDay
8,753943319.178267
16622,0.0
2,1, 7,21, 0,23,15.00,30.00,SummerDesignDay
8,752688421.3752682
16622,0.0
2,1, 7,21, 0,23,30.00,45.00,SummerDesignDay
8,753025161.3548951
16622,0.0
2,1, 7,21, 0,23,45.00,60.00,SummerDesignDay
8,752593645.9247029
16622,0.0
2,1, 7,21, 0,24, 0.00,15.00,SummerDesignDay
8,751773759.9587023
16622,0.0
2,1, 7,21, 0,24,15.00,30.00,SummerDesignDay
8,752471152.0279686
16622,0.0
2,1, 7,21, 0,24,30.00,45.00,SummerDesignDay
8,750000061.3415422
16622,0.0
2,1, 7,21, 0,24,45.00,60.00,SummerDesignDay
8,751488085.7144663
16622,0.0
1,MAXWELL AFB ANN CLG 2% CONDNS DP=>MDB 1 HVAC Sizing Pass 1,  32.38, -86.36,  -6.00,  52.00
2,1, 7,21, 0, 1, 0.00,15.00,SummerDesignDay
8,732894759.4834893
16622,0.0
2,1, 7,21, 0, 1,15.00,30.00,SummerDesignDay
8,732032949.4777341
16622,0.0
2,1, 7,21, 0, 1,30.00,45.00,SummerDesignDay
8,731201031.6336386
16622,0.0
2,1, 7,21, 0, 1,45.00,60.00,SummerDesignDay
8,730415828.1441488
16622,0.0
2,1, 7,21, 0, 2, 0.00,15.00,SummerDesignDay
8,729765259.6663697
16622,0.0
2,1, 7,21, 0, 2,15.00,30.00,SummerDesignDay
8,729177231.7377207
16622,0.0
2,1, 7,21, 0, 2,30.00,45.00,SummerDesignDay
8,728618024.4580832
16622,0.0
2,1, 7,21, 0, 2,45.00,60.00,SummerDesignDay
8,728076784.897202
16622,0.0
2,1, 7,21, 0, 3, 0.00,15.00,SummerDesignDay
8,727597161.8747778
16622,0.0
2,1, 7,21, 0, 3,15.00,30.00,SummerDesignDay
8,727149503.8648515
16622,0.0
2,1, 7,21, 0, 3,30.00,45.00,SummerDesignDay
8,726718219.658649
16622,0.0
2,1, 7,21, 0, 3,45.00,60.00,SummerDesignDay
8,726297667.4787781
16622,0.0
2,1, 7,21, 0, 4, 0.00,15.00,SummerDesignDay
8,725884461.088206
16622,0.0
2,1, 7,21, 0, 4,15.00,30.00,SummerDesignDay
8,725477304.913671
16622,0.0
2,1, 7,21, 0, 4,30.00,45.00,SummerDesignDay
8,725075619.9075494
16622,0.0
2,1, 7,21, 0, 4,45.00,60.00,SummerDesignDay
8,724678977.3189318
16622,0.0
2,1, 7,21, 0, 5, 0.00,15.00,SummerDesignDay
8,724334370.8173063
16622,0.0
2,1, 7,21, 0, 5,15.00,30.00,SummerDesignDay
8,724017510.314976
16622,0.0
2,1, 7,21, 0, 5,30.00,45.00,SummerDesignDay
8,723713180.8123875
16622,0.0
2,1, 7,21, 0, 5,45.00,60.00,SummerDesignDay
8,682072068.3674867
16622,0.0
2,1, 7,21, 0, 6, 0.00,15.00,SummerDesignDay
8,682555936.1863382
16622,0.0
2,1, 7,21, 0, 6,15.00,30.00,SummerDesignDay
8,683508376.3230546
16622,0.0
2,1, 7,21, 0, 6,30.00,45.00,SummerDesignDay
8,684779622.8591235
16622,0.0
2,1, 7,21, 0, 6,45.00,60.00,SummerDesignDay
8,685990120.7186298
16622,0.0
2,1, 7,21, 0, 7, 0.00,15.00,SummerDesignDay
8,724539172.158983
16622,0.0
2,1, 7,21, 0, 7,15.00,30.00,SummerDesignDay
8,725583855.6056664
16622,0.0
2,1, 7,21, 0, 7,30.00,45.00,SummerDesignDay
8,727308824.398087
16622,0.0
2,1, 7,21, 0, 7,45.00,60.00,SummerDesignDay
8,730916523.2329619
16622,0.0
2,1, 7,21, 0, 8, 0.00,15.00,SummerDesignDay
8,739258356.6367593
16622,0.0
2,1, 7,21, 0, 8,15.00,30.00,SummerDesignDay
8,744266259.6197793
16622,0.0
2,1, 7,21, 0, 8,30.00,45.00,SummerDesignDay
8,751226559.6225407
16622,0.0
2,1, 7,21, 0, 8,45.00,60.00,SummerDesignDay
8,757104099.5001512
16622,0.0
2,1, 7,21, 0, 9, 0.00,15.00,SummerDesignDay
8,762100398.1961517
16622,0.0
2,1, 7,21, 0, 9,15.00,30.00,SummerDesignDay
8,770240875.8578391
16622,0.0
2,1, 7,21, 0, 9,30.00,45.00,SummerDesignDay
8,774316541.3518703
16622,0.0
2,1, 7,21, 0, 9,45.00,60.00,SummerDesignDay
8,781071670.6990626
16622,0.0
2,1, 7,21, 0,10, 0.00,15.00,SummerDesignDay
8,785492623.5407186
16622,0.0
2,1, 7,21, 0,10,15.00,30.00,SummerDesignDay
8,788986602.9811616
16622,0.0
2,1, 7,21, 0,10,30.00,45.00,SummerDesignDay
8,794073028.7676091
16622,0.0
2,1, 7,21, 0,10,45.00,60.00,SummerDesignDay
8,794923210.6431985
16622,0.0
2,1, 7,21, 0,11, 0.00,15.00,SummerDesignDay
8,796521139.5193739
16622,0.0
2,1, 7,21, 0,11,15.00,30.00,SummerDesignDay
8,795081424.9704964
16622,0.0
2,1, 7,21, 0,11,30.00,45.00,SummerDesignDay
8,793655654.8289642
16622,0.0
2,1, 7,21, 0,11,45.00,60.00,SummerDesignDay
8,793153422.2670543
16622,0.0
2,1, 7,21, 0,12, 0.00,15.00,SummerDesignDay
8,789555335.4813697
16622,0.0
2,1, 7,21, 0,12,15.00,30.00,SummerDesignDay
8,789119287.910841
16622,0.0
2,1, 7,21, 0,12,30.00,45.00,SummerDesignDay
8,786783861.0269332
16622,0.0
2,1, 7,21, 0,12,45.00,60.00,SummerDesignDay
8,787928299.9263043
16622,0.0
2,1, 7,21, 0,13, 0.00,15.00,SummerDesignDay
8,789443051.5259182
16622,0.0
2,1, 7,21, 0,13,15.00,30.00,SummerDesignDay
8,789739671.6534011
16622,0.0
2,1, 7,21, 0,13,30.00,45.00,SummerDesignDay
8,793670517.7725341
16622,0.0
2,1, 7,21, 0,13,45.00,60.00,SummerDesignDay
8,795168650.0101073
16622,0.0
2,1, 7,21, 0,14, 0.00,15.00,SummerDesignDay
8,805021865.7500248
16622,0.0
2,1, 7,21, 0,14,15.00,30.00,SummerDesignDay
8,809898625.4736445
16622,0.0
2,1, 7,21, 0,14,30.00,45.00,SummerDesignDay
8,817216919.2396021
16622,0.0
2,1, 7,21, 0,14,45.00,60.00,SummerDesignDay
8,823695585.9710245
16622,0.0
2,1, 7,21, 0,15, 0.00,15.00,SummerDesignDay
8,827160285.3548684
16622,0.0
2,1, 7,21, 0,15,15.00,30.00,SummerDesignDay
8,833262164.8906434
16622,0.0
2,1, 7,21, 0,15,30.00,45.00,SummerDesignDay
8,835441301.7114506
16622,0.0
2,1, 7,21, 0,15,45.00,60.00,SummerDesignDay
8,840383840.8496706
16622,0.0
2,1, 7,21, 0,16, 0.00,15.00,SummerDesignDay
8,842165579.503916
16622,0.0
2,1, 7,21, 0,16,15.00,30.00,SummerDesignDay
8,843100397.1095817
16622,0.0
2,1, 7,21, 0,16,30.00,45.00,SummerDesignDay
8,845529408.02037
16622,0.0
2,1, 7,21, 0,16,45.00,60.00,SummerDesignDay
8,843938734.7330389
16622,0.0
2,1, 7,21, 0,17, 0.00,15.00,SummerDesignDay
8,845128616.6042125
16622,0.0
2,1, 7,21, 0,17,15.00,30.00,SummerDesignDay
8,842686822.6355937
16622,0.0
2,1, 7,21, 0,17,30.00,45.00,SummerDesignDay
8,840227433.8084352
16622,0.0
2,1, 7,21, 0,17,45.00,60.00,SummerDesignDay
8,837612639.6235254
16622,0.0
2,1, 7,21, 0,18, 0.00,15.00,SummerDesignDay
8,830879128.3071053
16622,0.0
2,1, 7,21, 0,18,15.00,30.00,SummerDesignDay
8,826304900.0428996
16622,0.0
2,1, 7,21, 0,18,30.00,45.00,SummerDesignDay
8,816409610.7668743
16622,0.0
2,1, 7,21, 0,18,45.00,60.00,SummerDesignDay
8,808506036.4093051
16622,0.0
2,1, 7,21, 0,19, 0.00,15.00,SummerDesignDay
8,798005366.3371854
16622,0.0
2,1, 7,21, 0,19,15.00,30.00,SummerDesignDay
8,783386002.4545448
16622,0.0
2,1, 7,21, 0,19,30.00,45.00,SummerDesignDay
8,773632954.2045577
16622,0.0
2,1, 7,21, 0,19,45.00,60.00,SummerDesignDay
8,807300372.0145745
16622,0.0
2,1, 7,21, 0,20, 0.00,15.00,SummerDesignDay
8,803823609.0696809
16622,0.0
2,1, 7,21, 0,20,15.00,30.00,SummerDesignDay
8,797701395.9056075
16622,0.0
2,1, 7,21, 0,20,30.00,45.00,SummerDesignDay
8,792144551.0846398
16622,0.0
2,1, 7,21, 0,20,45.00,60.00,SummerDesignDay
8,789129939.251384
16622,0.0
2,1, 7,21, 0,21, 0.00,15.00,SummerDesignDay
8,783518182.0339398
16622,0.0
2,1, 7,21, 0,21,15.00,30.00,SummerDesignDay
8,782770803.6945832
16622,0.0
2,1, 7,21, 0,21,30.00,45.00,SummerDesignDay
8,778768476.5398717
16622,0.0
2,1, 7,21, 0,21,45.00,60.00,SummerDesignDay
8,776841989.2189641
16622,0.0
2,1, 7,21, 0,22, 0.00,15.00,SummerDesignDay
8,774429792.9792206
16622,0.0
2,1, 7,21, 0,22,15.00,30.00,SummerDesignDay
8,770991375.6985755
16622,0.0
2,1, 7,21, 0,22,30.00,45.00,SummerDesignDay
8,770159432.583693
16622,0.0
2,1, 7,21, 0,22,45.00,60.00,SummerDesignDay
8,765842868.5367815
16622,0.0
2,1, 7,21, 0,23, 0.00,15.00,SummerDesignDay
8,742255581.3984311
16622,0.0
2,1, 7,21, 0,23,15.00,30.00,SummerDesignDay
8,739860389.0752153
16622,0.0
2,1, 7,21, 0,23,30.00,45.00,SummerDesignDay
8,739748111.9689908
16622,0.0
2,1, 7,21, 0,23,45.00,60.00,SummerDesignDay
8,738760077.0866871
16622,0.0
2,1, 7,21, 0,24, 0.00,15.00,SummerDesignDay
8,737303703.6884558
16622,0.0
2,1, 7,21, 0,24,15.00,30.00,SummerDesignDay
8,737582233.6044564
16622,0.0
2,1, 7,21, 0,24,30.00,45.00,SummerDesignDay
8,734706911.7906613
16622,0.0
2,1, 7,21, 0,24,45.00,60.00,SummerDesignDay
8,735782944.124413
16622,0.0
1,MAXWELL AFB ANN HTG 99% CONDNS DB 1 HVAC Sizing Pass 1,  32.38, -86.36,  -6.00,  52.00
2,1, 1,21, 0, 1, 0.00,15.00,WinterDesignDay
8,354879588.20179546
16622,864361104.3946837
2,1, 1,21, 0, 1,15.00,30.00,WinterDesignDay
8,354876909.5628135
16622,864345095.7972603
2,1, 1,21, 0, 1,30.00,45.00,WinterDesignDay
8,354878596.46793
16622,864348463.079448
2,1, 1,21, 0, 1,45.00,60.00,WinterDesignDay
8,354877369.9161408
16622,864471226.2450625
2,1, 1,21, 0, 2, 0.00,15.00,WinterDesignDay
8,354878250.1933668