Program Version,EnergyPlus, Version 23.2.0-7636e6b3e9, YMD=2024.01.24 11:06
1,5,Environment Title[],Latitude[deg],Longitude[deg],Time Zone[],Elevation[m]
2,8,Day of Simulation[],Month[],Day of Month[],DST Indicator[1=yes 0=no],Hour[],StartMinute[],EndMinute[],DayType
3,5,Cumulative Day of Simulation[],Month[],Day of Month[],DST Indicator[1=yes 0=no],DayType  ! When Daily Report Variables Requested
4,2,Cumulative Days of Simulation[],Month[]  ! When Monthly Report Variables Requested
5,1,Cumulative Days of Simulation[] ! When Run Period Report Variables Requested
6,1,Calendar Year of Simulation[] ! When Annual Report Variables Requested
8,1,Electricity:Facility [J] !TimeStep
End of Data Dictionary
1,RUN PERIOD 1,  30.49, -81.69,  -5.00,  10.00
2,1, 1, 1, 0, 1, 0.00,60.00,Monday
8,282059138.6800519
2,1, 1, 1, 0, 2, 0.00,60.00,Monday
8,97358412.07067427
2,1, 1, 1, 0, 3, 0.00,60.00,Monday
8,314168609.4443048
2,1, 1, 1, 0, 4, 0.00,60.00,Monday
8,94449692.17307743
2,1, 1, 1, 0, 5, 0.00,60.00,Monday
8,369062992.65109277
2,1, 1, 1, 0, 6, 0.00,60.00,Monday
8,1208390218.5367544
2,1, 1, 1, 0, 7, 0.00,60.00,Monday
8,1222109041.9952102
2,1, 1, 1, 0, 8, 0.00,60.00,Monday
8,1150970147.1212256
2,1, 1, 1, 0, 9, 0.00,60.00,Monday
8,972352678.5308781
2,1, 1, 1, 0,10, 0.00,60.00,Monday
8,1056870288.4563575
2,1, 1, 1, 0,11, 0.00,60.00,Monday
8,980531887.2301273
2,1, 1, 1, 0,12, 0.00,60.00,Monday
8,950722524.6696563
2,1, 1, 1, 0,13, 0.00,60.00,Monday
8,868795953.4538045
2,1, 1, 1, 0,14, 0.00,60.00,Monday
8,848842971.1425033
2,1, 1, 1, 0,15, 0.00,60.00,Monday
8,830621924.8810743
2,1, 1, 1, 0,16, 0.00,60.00,Monday
8,820593111.0326746
2,1, 1, 1, 0,17, 0.00,60.00,Monday
8,979644051.980525
2,1, 1, 1, 0,18, 0.00,60.00,Monday
8,104975894.35166226
2,1, 1, 1, 0,19, 0.00,60.00,Monday
8,121606954.60613655
2,1, 1, 1, 0,20, 0.00,60.00,Monday
8,166354531.581319
2,1, 1, 1, 0,21, 0.00,60.00,Monday
8,172750931.35980287
2,1, 1, 1, 0,22, 0.00,60.00,Monday
8,249839022.6352403
2,1, 1, 1, 0,23, 0.00,60.00,Monday
8,209160922.6737034
2,1, 1, 1, 0,24, 0.00,60.00,Monday
8,352692659.71949637
2,2, 1, 2, 0, 1, 0.00,60.00,Tuesday
8,247823171.94708356
2,2, 1, 2, 0, 2, 0.00,60.00,Tuesday
8,360972045.79200613
2,2, 1, 2, 0, 3, 0.00,60.00,Tuesday
8,259379352.22404012
2,2, 1, 2, 0, 4, 0.00,60.00,Tuesday
8,393441649.2367257
2,2, 1, 2, 0, 5, 0.00,60.00,Tuesday
8,298955228.13663036
2,2, 1, 2, 0, 6, 0.00,60.00,Tuesday
8,1501460477.4025078
2,2, 1, 2, 0, 7, 0.00,60.00,Tuesday
8,1552041622.0689552
2,2, 1, 2, 0, 8, 0.00,60.00,Tuesday
8,1316474862.690601
2,2, 1, 2, 0, 9, 0.00,60.00,Tuesday
8,1166488148.5158498
2,2, 1, 2, 0,10, 0.00,60.00,Tuesday
8,1245846742.1924314
2,2, 1, 2, 0,11, 0.00,60.00,Tuesday
8,1056022324.3657547
2,2, 1, 2, 0,12, 0.00,60.00,Tuesday
8,1048602273.9563687
2,2, 1, 2, 0,13, 0.00,60.00,Tuesday
8,910687974.5083352
2,2, 1, 2, 0,14, 0.00,60.00,Tuesday
8,872163995.093361
2,2, 1, 2, 0,15, 0.00,60.00,Tuesday
8,773954362.5951649
2,2, 1, 2, 0,16, 0.00,60.00,Tuesday
8,815642386.6445085
2,2, 1, 2, 0,17, 0.00,60.00,Tuesday
8,937646156.3960232
2,2, 1, 2, 0,18, 0.00,60.00,Tuesday
8,105293412.56202883
2,2, 1, 2, 0,19, 0.00,60.00,Tuesday
8,170879966.30955398
2,2, 1, 2, 0,20, 0.00,60.00,Tuesday
8,114985958.5832891
2,2, 1, 2, 0,21, 0.00,60.00,Tuesday
8,266732311.81344092
2,2, 1, 2, 0,22, 0.00,60.00,Tuesday
8,127471002.54493348
2,2, 1, 2, 0,23, 0.00,60.00,Tuesday
8,269467835.97024095
2,2, 1, 2, 0,24, 0.00,60.00,Tuesday
8,137671171.3935476
2,3, 1, 3, 0, 1, 0.00,60.00,Wednesday
8,333312714.65424544
2,3, 1, 3, 0, 2, 0.00,60.00,Wednesday
8,146525299.2902776
2,3, 1, 3, 0, 3, 0.00,60.00,Wednesday
8,344937260.4888574
2,3, 1, 3, 0, 4, 0.00,60.00,Wednesday
8,148185382.37797984
2,3, 1, 3, 0, 5, 0.00,60.00,Wednesday
8,396347619.38752216
2,3, 1, 3, 0, 6, 0.00,60.00,Wednesday
8,1252914470.978833
2,3, 1, 3, 0, 7, 0.00,60.00,Wednesday
8,1286103773.6503263
2,3, 1, 3, 0, 8, 0.00,60.00,Wednesday
8,1175632670.2435842
2,3, 1, 3, 0, 9, 0.00,60.00,Wednesday
8,1079417543.9592056
2,3, 1, 3, 0,10, 0.00,60.00,Wednesday
8,1139991200.009345
2,3, 1, 3, 0,11, 0.00,60.00,Wednesday
8,1081311958.0868487
2,3, 1, 3, 0,12, 0.00,60.00,Wednesday
8,984210199.871442
2,3, 1, 3, 0,13, 0.00,60.00,Wednesday
8,929540619.4394617
2,3, 1, 3, 0,14, 0.00,60.00,Wednesday
8,786119419.8856752
2,3, 1, 3, 0,15, 0.00,60.00,Wednesday
8,739092622.2493829
2,3, 1, 3, 0,16, 0.00,60.00,Wednesday
8,792196248.9007007
2,3, 1, 3, 0,17, 0.00,60.00,Wednesday
8,914983847.4570982
2,3, 1, 3, 0,18, 0.00,60.00,Wednesday
8,105356295.25948428
2,3, 1, 3, 0,19, 0.00,60.00,Wednesday
8,202429878.2365077
2,3, 1, 3, 0,20, 0.00,60.00,Wednesday
8,110830580.95370963
2,3, 1, 3, 0,21, 0.00,60.00,Wednesday
8,270677852.7602453
2,3, 1, 3, 0,22, 0.00,60.00,Wednesday
8,127173957.63824593
2,3, 1, 3, 0,23, 0.00,60.00,Wednesday
8,331808559.16351914
2,3, 1, 3, 0,24, 0.00,60.00,Wednesday
8,138286097.97794467
2,4, 1, 4, 0, 1, 0.00,60.00,Thursday
8,387084638.259586
2,4, 1, 4, 0, 2, 0.00,60.00,Thursday
8,148665520.31556848
2,4, 1, 4, 0, 3, 0.00,60.00,Thursday
8,470445719.27664953
2,4, 1, 4, 0, 4, 0.00,60.00,Thursday
8,156203098.50427097
2,4, 1, 4, 0, 5, 0.00,60.00,Thursday
8,511858623.4696717
2,4, 1, 4, 0, 6, 0.00,60.00,Thursday
8,1434949937.032324
2,4, 1, 4, 0, 7, 0.00,60.00,Thursday
8,1475359904.6185992
2,4, 1, 4, 0, 8, 0.00,60.00,Thursday
8,1264177469.2763557
2,4, 1, 4, 0, 9, 0.00,60.00,Thursday
8,1081110636.579747
2,4, 1, 4, 0,10, 0.00,60.00,Thursday
8,987133607.3683583
2,4, 1, 4, 0,11, 0.00,60.00,Thursday
8,852978668.5723293
2,4, 1, 4, 0,12, 0.00,60.00,Thursday
8,709686268.6909199
2,4, 1, 4, 0,13, 0.00,60.00,Thursday
8,578773934.2246076
2,4, 1, 4, 0,14, 0.00,60.00,Thursday
8,546389324.9512806
2,4, 1, 4, 0,15, 0.00,60.00,Thursday
8,574675802.7798957
2,4, 1, 4, 0,16, 0.00,60.00,Thursday
8,515856465.8239382
2,4, 1, 4, 0,17, 0.00,60.00,Thursday
8,584061701.8651931
2,4, 1, 4, 0,18, 0.00,60.00,Thursday
8,105379292.22903803
2,4, 1, 4, 0,19, 0.00,60.00,Thursday
8,110416858.6796097
2,4, 1, 4, 0,20, 0.00,60.00,Thursday
8,103151410.838125
2,4, 1, 4, 0,21, 0.00,60.00,Thursday
8,128867730.61178334
2,4, 1, 4, 0,22, 0.00,60.00,Thursday
8,127294080.7709962
2,4, 1, 4, 0,23, 0.00,60.00,Thursday
8,170303748.24663082
2,4, 1, 4, 0,24, 0.00,60.00,Thursday
8,149308243.59932494
2,5, 1, 5, 0, 1, 0.00,60.00,Friday
8,192104658.6601361
2,5, 1, 5, 0, 2, 0.00,60.00,Friday
8,167619066.41469055
2,5, 1, 5, 0, 3, 0.00,60.00,Friday
8,226210867.3059029
2,5, 1, 5, 0, 4, 0.00,60.00,Friday
8,187435374.61751688
2,5, 1, 5, 0, 5, 0.00,60.00,Friday
8,275501321.24960965
2,5, 1, 5, 0, 6, 0.00,60.00,Friday
8,1140091542.401627
2,5, 1, 5, 0, 7, 0.00,60.00,Friday
8,1224629946.318094
2,5, 1, 5, 0, 8, 0.00,60.00,Friday
8,1058326439.8722669
2,5, 1, 5, 0, 9, 0.00,60.00,Friday
8,932184529.5285178
2,5, 1, 5, 0,10, 0.00,60.00,Friday
8,779277081.4773452
2,5, 1, 5, 0,11, 0.00,60.00,Friday
8,664276256.8448288
2,5, 1, 5, 0,12, 0.00,60.00,Friday
8,549692739.6896969
2,5, 1, 5, 0,13, 0.00,60.00,Friday
8,483444742.1001027
2,5, 1, 5, 0,14, 0.00,60.00,Friday
8,409697499.6006951
2,5, 1, 5, 0,15, 0.00,60.00,Friday
8,422508507.9732753
2,5, 1, 5, 0,16, 0.00,60.00,Friday
8,414103937.9341846
2,5, 1, 5, 0,17, 0.00,60.00,Friday
8,432622096.4253617
2,5, 1, 5, 0,18, 0.00,60.00,Friday
8,105414594.77041766
2,5, 1, 5, 0,19, 0.00,60.00,Friday
8,110381336.10401644
2,5, 1, 5, 0,20, 0.00,60.00,Friday
8,101228433.69997914
2,5, 1, 5, 0,21, 0.00,60.00,Friday
8,98674173.78775862
2,5, 1, 5, 0,22, 0.00,60.00,Friday
8,105185794.56443954
2,5, 1, 5, 0,23, 0.00,60.00,Friday
8,168581641.88594624
2,5, 1, 5, 0,24, 0.00,60.00,Friday
8,110368792.19068813
2,6, 1, 6, 0, 1, 0.00,60.00,Saturday
8,184903108.03721425
2,6, 1, 6, 0, 2, 0.00,60.00,Saturday
8,100167322.05894722
2,6, 1, 6, 0, 3, 0.00,60.00,Saturday
8,209822084.15844482
2,6, 1, 6, 0, 4, 0.00,60.00,Saturday
8,102641168.13872972
2,6, 1, 6, 0, 5, 0.00,60.00,Saturday
8,249404812.44460464
2,6, 1, 6, 0, 6, 0.00,60.00,Saturday
8,122500002.1554147
2,6, 1, 6, 0, 7, 0.00,60.00,Saturday
8,1119768155.2244697
2,6, 1, 6, 0, 8, 0.00,60.00,Saturday
8,1062583894.23965
2,6, 1, 6, 0, 9, 0.00,60.00,Saturday
8,865845147.6384372
2,6, 1, 6, 0,10, 0.00,60.00,Saturday
8,663710103.4118062
2,6, 1, 6, 0,11, 0.00,60.00,Saturday
8,553339976.8168515
2,6, 1, 6, 0,12, 0.00,60.00,Saturday
8,461533993.5139403
2,6, 1, 6, 0,13, 0.00,60.00,Saturday
8,413013227.1451243
2,6, 1, 6, 0,14, 0.00,60.00,Saturday
8,377899175.50130063
2,6, 1, 6, 0,15, 0.00,60.00,Saturday
8,368790519.58521575
2,6, 1, 6, 0,16, 0.00,60.00,Saturday
8,52591391.20316944
2,6, 1, 6, 0,17, 0.00,60.00,Saturday
8,422056256.8872677
2,6, 1, 6, 0,18, 0.00,60.00,Saturday
8,54909027.73856622
2,6, 1, 6, 0,19, 0.00,60.00,Saturday
8,78499340.59974273
2,6, 1, 6, 0,20, 0.00,60.00,Saturday
8,88713143.60127027
2,6, 1, 6, 0,21, 0.00,60.00,Saturday
8,99748401.17284186
2,6, 1, 6, 0,22, 0.00,60.00,Saturday
8,106501809.31048842
2,6, 1, 6, 0,23, 0.00,60.00,Saturday
8,166246602.94191527
2,6, 1, 6, 0,24, 0.00,60.00,Saturday
8,106948129.11989146
2,7, 1, 7, 0, 1, 0.00,60.00,Sunday
8,150909485.33743522
2,7, 1, 7, 0, 2, 0.00,60.00,Sunday
8,76111168.05404949
2,7, 1, 7, 0, 3, 0.00,60.00,Sunday
8,186552470.87253067
2,7, 1, 7, 0, 4, 0.00,60.00,Sunday
8,113461884.84768161
2,7, 1, 7, 0, 5, 0.00,60.00,Sunday
8,235326409.487151
2,7, 1, 7, 0, 6, 0.00,60.00,Sunday
8,141693782.67329633
2,7, 1, 7, 0, 7, 0.00,60.00,Sunday
8,266837803.8289758
2,7, 1, 7, 0, 8, 0.00,60.00,Sunday
8,97983603.46615359
2,7, 1, 7, 0, 9, 0.00,60.00,Sunday
8,228770340.64935458
2,7, 1, 7, 0,10, 0.00,60.00,Sunday
8,84102648.36648686
2,7, 1, 7, 0,11, 0.00,60.00,Sunday
8,173496364.0413619
2,7, 1, 7, 0,12, 0.00,60.00,Sunday
8,57119850.86952877
2,7, 1, 7, 0,13, 0.00,60.00,Sunday
8,153758090.16908258
2,7, 1, 7, 0,14, 0.00,60.00,Sunday
8,52816081.27353656
2,7, 1, 7, 0,15, 0.00,60.00,Sunday
8,146649355.6344995
2,7, 1, 7, 0,16, 0.00,60.00,Sunday
8,53752039.16981635
2,7, 1, 7, 0,17, 0.00,60.00,Sunday
8,148128931.54611453
2,7, 1, 7, 0,18, 0.00,60.00,Sunday
8,45520072.73007877
2,7, 1, 7, 0,19, 0.00,60.00,Sunday
8,184492150.2222303
2,7, 1, 7, 0,20, 0.00,60.00,Sunday
8,74618974.86517176
2,7, 1, 7, 0,21, 0.00,60.00,Sunday
8,215502834.38157922
2,7, 1, 7, 0,22, 0.00,60.00,Sunday
8,83161169.5983606
2,7, 1, 7, 0,23, 0.00,60.00,Sunday
8,223165455.85244137
2,7, 1, 7, 0,24, 0.00,60.00,Sunday
8,77236091.91181326
2,8, 1, 8, 0, 1, 0.00,60.00,Monday
8,263403000.52012393
2,8, 1, 8, 0, 2, 0.00,60.00,Monday
8,118095271.7293645
2,8, 1, 8, 0, 3, 0.00,60.00,Monday
8,258561544.36997977
2,8, 1, 8, 0, 4, 0.00,60.00,Monday
8,113835135.66453125
2,8, 1, 8, 0, 5, 0.00,60.00,Monday
8,270779341.94934916
2,8, 1, 8, 0, 6, 0.00,60.00,Monday
8,990962129.0978835
2,8, 1, 8, 0, 7, 0.00,60.00,Monday
8,1103983154.4478416
2,8, 1, 8, 0, 8, 0.00,60.00,Monday
8,929616279.2776201
2,8, 1, 8, 0, 9, 0.00,60.00,Monday
8,744885835.5203917
2,8, 1, 8, 0,10, 0.00,60.00,Monday
8,685704177.0475476
2,8, 1, 8, 0,11, 0.00,60.00,Monday
8,593153651.5563809
2,8, 1, 8, 0,12, 0.00,60.00,Monday
8,526781491.1482406
2,8, 1, 8, 0,13, 0.00,60.00,Monday
8,486683435.1378825
2,8, 1, 8, 0,14, 0.00,60.00,Monday
8,401755481.0143367
2,8, 1, 8, 0,15, 0.00,60.00,Monday
8,390486558.063529
2,8, 1, 8, 0,16, 0.00,60.00,Monday
8,388791799.4253133
2,8, 1, 8, 0,17, 0.00,60.00,Monday
8,373427705.40940857
2,8, 1, 8, 0,18, 0.00,60.00,Monday
8,104976808.20036224
2,8, 1, 8, 0,19, 0.00,60.00,Monday
8,110823616.78568985
2,8, 1, 8, 0,20, 0.00,60.00,Monday
8,98397470.32010381
2,8, 1, 8, 0,21, 0.00,60.00,Monday
8,99232280.54910152
2,8, 1, 8, 0,22, 0.00,60.00,Monday
8,97294532.02013841
2,8, 1, 8, 0,23, 0.00,60.00,Monday
8,97002357.05338472
2,8, 1, 8, 0,24, 0.00,60.00,Monday
8,97097495.9634912
2,9, 1, 9, 0, 1, 0.00,60.00,Tuesday
8,97192634.87359789
2,9, 1, 9, 0, 2, 0.00,60.00,Tuesday
8,97358412.07067427
2,9, 1, 9, 0, 3, 0.00,60.00,Tuesday
8,96937477.27041605
2,9, 1, 9, 0, 4, 0.00,60.00,Tuesday
8,94449692.17307743
2,9, 1, 9, 0, 5, 0.00,60.00,Tuesday
8,101691749.39393699
2,9, 1, 9, 0, 6, 0.00,60.00,Tuesday
8,498893127.0017736
2,9, 1, 9, 0, 7, 0.00,60.00,Tuesday
8,574554370.0222247
2,9, 1, 9, 0, 8, 0.00,60.00,Tuesday
8,486285576.7128697
2,9, 1, 9, 0, 9, 0.00,60.00,Tuesday
8,461181361.570992
2,9, 1, 9, 0,10, 0.00,60.00,Tuesday
8,451052555.1786136
2,9, 1, 9, 0,11, 0.00,60.00,Tuesday
8,398504074.76831615
2,9, 1, 9, 0,12, 0.00,60.00,Tuesday
8,355893552.1066173
2,9, 1, 9, 0,13, 0.00,60.00,Tuesday
8,333585788.62616366
2,9, 1, 9, 0,14, 0.00,60.00,Tuesday
8,258362694.43000764
2,9, 1, 9, 0,15, 0.00,60.00,Tuesday
8,253758341.8187595
2,9, 1, 9, 0,16, 0.00,60.00,Tuesday
8,250798043.98617256
2,9, 1, 9, 0,17, 0.00,60.00,Tuesday
8,110348425.4580763
2,9, 1, 9, 0,18, 0.00,60.00,Tuesday
8,105472415.70764965
2,9, 1, 9, 0,19, 0.00,60.00,Tuesday
8,110323005.04123466
2,9, 1, 9, 0,20, 0.00,60.00,Tuesday
8,99008100.25201209
2,9, 1, 9, 0,21, 0.00,60.00,Tuesday
8,98613838.9484876
2,9, 1, 9, 0,22, 0.00,60.00,Tuesday
8,97486253.98628877
2,9, 1, 9, 0,23, 0.00,60.00,Tuesday
8,97002357.05338472
2,9, 1, 9, 0,24, 0.00,60.00,Tuesday
8,97097495.9634912
2,10, 1,10, 0, 1, 0.00,60.00,Wednesday
8,97192634.87359789
2,10, 1,10, 0, 2, 0.00,60.00,Wednesday
8,97358412.07067427
2,10, 1,10, 0, 3, 0.00,60.00,Wednesday
8,96937463.07961978
2,10, 1,10, 0, 4, 0.00,60.00,Wednesday
8,94449692.17307743
2,10, 1,10, 0, 5, 0.00,60.00,Wednesday
8,101670101.26518366
2,10, 1,10, 0, 6, 0.00,60.00,Wednesday
8,337250472.33530074
2,10, 1,10, 0, 7, 0.00,60.00,Wednesday
8,370705862.3100485
2,10, 1,10, 0, 8, 0.00,60.00,Wednesday
8,336307902.4320509
2,10, 1,10, 0, 9, 0.00,60.00,Wednesday
8,346677133.4461896
2,10, 1,10, 0,10, 0.00,60.00,Wednesday
8,361028996.2637932
2,10, 1,10, 0,11, 0.00,60.00,Wednesday
8,345615021.13249934
2,10, 1,10, 0,12, 0.00,60.00,Wednesday
8,343387703.6520479
2,10, 1,10, 0,13, 0.00,60.00,Wednesday
8,325048836.36021936
2,10, 1,10, 0,14, 0.00,60.00,Wednesday
8,222015089.45624197
2,10, 1,10, 0,15, 0.00,60.00,Wednesday
8,206191715.4327792
2,10, 1,10, 0,16, 0.00,60.00,Wednesday
8,204366579.29953027
2,10, 1,10, 0,17, 0.00,60.00,Wednesday
8,122341888.32250157
2,10, 1,10, 0,18, 0.00,60.00,Wednesday
8,105516479.1408639
2,10, 1,10, 0,19, 0.00,60.00,Wednesday
8,110278560.40910028
2,10, 1,10, 0,20, 0.00,60.00,Wednesday
8,99051161.53697325
2,10, 1,10, 0,21, 0.00,60.00,Wednesday
8,98569925.68693158
2,10, 1,10, 0,22, 0.00,60.00,Wednesday
8,97500194.59978384
2,10, 1,10, 0,23, 0.00,60.00,Wednesday
8,97002357.05338472
2,10, 1,10, 0,24, 0.00,60.00,Wednesday
8,97097495.9634912
2,11, 1,11, 0, 1, 0.00,60.00,Thursday
8,97192634.87359789
2,11, 1,11, 0, 2, 0.00,60.00,Thursday
8,97358412.07067427
2,11, 1,11, 0, 3, 0.00,60.00,Thursday
8,96937462.05225194
2,11, 1,11, 0, 4, 0.00,60.00,Thursday
8,94449692.17307743
2,11, 1,11, 0, 5, 0.00,60.00,Thursday
8,101668525.09527256
2,11, 1,11, 0, 6, 0.00,60.00,Thursday
8,198634749.94154647
2,11, 1,11, 0, 7, 0.00,60.00,Thursday
8,280254688.823515
2,11, 1,11, 0, 8, 0.00,60.00,Thursday
8,305888247.5509796
2,11, 1,11, 0, 9, 0.00,60.00,Thursday
8,373112468.9601314
2,11, 1,11, 0,10, 0.00,60.00,Thursday
8,412954861.8202252
2,11, 1,11, 0,11, 0.00,60.00,Thursday
8,410814273.214787
2,11, 1,11, 0,12, 0.00,60.00,Thursday
8,409505219.6019196
2,11, 1,11, 0,13, 0.00,60.00,Thursday
8,383359822.5806833
2,11, 1,11, 0,14, 0.00,60.00,Thursday
8,273772506.63878626
2,11, 1,11, 0,15, 0.00,60.00,Thursday
8,264065584.85741562
2,11, 1,11, 0,16, 0.00,60.00,Thursday
8,282530466.2779111
2,11, 1,11, 0,17, 0.00,60.00,Thursday
8,252667318.78775597
2,11, 1,11, 0,18, 0.00,60.00,Thursday
8,105528516.99960299
2,11, 1,11, 0,19, 0.00,60.00,Thursday
8,110266424.89452218
2,11, 1,11, 0,20, 0.00,60.00,Thursday
8,99064195.48816371
2,11, 1,11, 0,21, 0.00,60.00,Thursday
8,98556907.13806942
2,11, 1,11, 0,22, 0.00,60.00,Thursday
8,97504282.15097067
2,11, 1,11, 0,23, 0.00,60.00,Thursday
8,97002357.05338472
2,11, 1,11, 0,24, 0.00,60.00,Thursday
8,97097495.9634912
2,12, 1,12, 0, 1, 0.00,60.00,Friday
8,97192634.87359789
2,12, 1,12, 0, 2, 0.00,60.00,Friday
8,97358412.07067427
2,12, 1,12, 0, 3, 0.00,60.00,Friday
8,96937461.75518672
2,12, 1,12, 0, 4, 0.00,60.00,Friday
8,94449692.17307743
2,12, 1,12, 0, 5, 0.00,60.00,Friday
8,101668074.3322538
2,12, 1,12, 0, 6, 0.00,60.00,Friday
8,241296639.06782877
2,12, 1,12, 0, 7, 0.00,60.00,Friday
8,305639778.86138946
2,12, 1,12, 0, 8, 0.00,60.00,Friday
8,360577570.6103289
2,12, 1,12, 0, 9, 0.00,60.00,Friday
8,432502317.36649907
2,12, 1,12, 0,10, 0.00,60.00,Friday
8,442974297.5347618
2,12, 1,12, 0,11, 0.00,60.00,Friday
8,434766227.550838
2,12, 1,12, 0,12, 0.00,60.00,Friday
8,434132511.48313856
2,12, 1,12, 0,13, 0.00,60.00,Friday
8,414341914.43378174
2,12, 1,12, 0,14, 0.00,60.00,Friday
8,282734114.0116588
2,12, 1,12, 0,15, 0.00,60.00,Friday
8,246946054.85133666
2,12, 1,12, 0,16, 0.00,60.00,Friday
8,239203111.59195483
2,12, 1,12, 0,17, 0.00,60.00,Friday
8,199545568.02253947
2,12, 1,12, 0,18, 0.00,60.00,Friday
8,105578156.23564008
2,12, 1,12, 0,19, 0.00,60.00,Friday
8,110216378.82560427
2,12, 1,12, 0,20, 0.00,60.00,Friday
8,99112278.3621277
2,12, 1,12, 0,21, 0.00,60.00,Friday
8,98508152.25880978
2,12, 1,12, 0,22, 0.00,60.00,Friday
8,97519475.1531515
2,12, 1,12, 0,23, 0.00,60.00,Friday
8,97002357.05338472
2,12, 1,12, 0,24, 0.00,60.00,Friday
8,97097495.9634912
2,13, 1,13, 0, 1, 0.00,60.00,Saturday
8,91524257.50241783
2,13, 1,13, 0, 2, 0.00,60.00,Saturday
8,82113764.21161841
2,13, 1,13, 0, 3, 0.00,60.00,Saturday
8,76869119.79603021
2,13, 1,13, 0, 4, 0.00,60.00,Saturday
8,77016332.25019957
2,13, 1,13, 0, 5, 0.00,60.00,Saturday
8,76589681.01443462
2,13, 1,13, 0, 6, 0.00,60.00,Saturday
8,79408359.11560479
2,13, 1,13, 0, 7, 0.00,60.00,Saturday
8,225851028.03897673
2,13, 1,13, 0, 8, 0.00,60.00,Saturday
8,214300696.94386512
2,13, 1,13, 0, 9, 0.00,60.00,Saturday
8,187890267.1541439
2,13, 1,13, 0,10, 0.00,60.00,Saturday
8,206292113.1579948
2,13, 1,13, 0,11, 0.00,60.00,Saturday
8,184462403.67267415
2,13, 1,13, 0,12, 0.00,60.00,Saturday
8,161983849.13940927
2,13, 1,13, 0,13, 0.00,60.00,Saturday
8,165683629.71804684
2,13, 1,13, 0,14, 0.00,60.00,Saturday
8,170255713.56589437
2,13, 1,13, 0,15, 0.00,60.00,Saturday
8,182793423.00304496
2,13, 1,13, 0,16, 0.00,60.00,Saturday
8,52592700.112191714
2,13, 1,13, 0,17, 0.00,60.00,Saturday
8,237451733.01892006
2,13, 1,13, 0,18, 0.00,60.00,Saturday
8,54909619.88242726
2,13, 1,13, 0,19, 0.00,60.00,Saturday
8,78499340.59974273
2,13, 1,13, 0,20, 0.00,60.00,Saturday
8,87208940.36608766
2,13, 1,13, 0,21, 0.00,60.00,Saturday
8,99748401.17284186
2,13, 1,13, 0,22, 0.00,60.00,Saturday
8,99887495.23882541
2,13, 1,13, 0,23, 0.00,60.00,Saturday
8,96649862.25638278
2,13, 1,13, 0,24, 0.00,60.00,Saturday
8,96200908.80617248
2,14, 1,14, 0, 1, 0.00,60.00,Sunday
8,55602968.046116106
2,14, 1,14, 0, 2, 0.00,60.00,Sunday
8,66116016.36467828
2,14, 1,14, 0, 3, 0.00,60.00,Sunday
8,72641315.93376482
2,14, 1,14, 0, 4, 0.00,60.00,Sunday
8,103142555.21894899
2,14, 1,14, 0, 5, 0.00,60.00,Sunday
8,105518335.46997346
2,14, 1,14, 0, 6, 0.00,60.00,Sunday
8,131117578.97885157
2,14, 1,14, 0, 7, 0.00,60.00,Sunday
8,113087837.38873996
2,14, 1,14, 0, 8, 0.00,60.00,Sunday
8,101172253.20847367
2,14, 1,14, 0, 9, 0.00,60.00,Sunday
8,85461351.03459878
2,14, 1,14, 0,10, 0.00,60.00,Sunday
8,89192927.71569996
2,14, 1,14, 0,11, 0.00,60.00,Sunday
8,66819378.89552972
2,14, 1,14, 0,12, 0.00,60.00,Sunday
8,55538600.15250151
2,14, 1,14, 0,13, 0.00,60.00,Sunday
8,42220051.28910905
2,14, 1,14, 0,14, 0.00,60.00,Sunday
8,48636834.388104975
2,14, 1,14, 0,15, 0.00,60.00,Sunday
8,40920570.63339882
2,14, 1,14, 0,16, 0.00,60.00,Sunday
8,47458460.99026662
2,14, 1,14, 0,17, 0.00,60.00,Sunday
8,36228471.40106748
2,14, 1,14, 0,18, 0.00,60.00,Sunday
8,45895975.40424362
2,14, 1,14, 0,19, 0.00,60.00,Sunday
8,65585279.19020312
2,14, 1,14, 0,20, 0.00,60.00,Sunday
8,82537715.93768479
2,14, 1,14, 0,21, 0.00,60.00,Sunday
8,98012371.47929049
2,14, 1,14, 0,22, 0.00,60.00,Sunday
8,99083203.1023508
2,14, 1,14, 0,23, 0.00,60.00,Sunday
8,106796036.95343547
2,14, 1,14, 0,24, 0.00,60.00,Sunday
8,107275640.84902313
2,15, 1,15, 0, 1, 0.00,60.00,Monday
8,150805923.4722973
2,15, 1,15, 0, 2, 0.00,60.00,Monday
8,157004449.18057832
2,15, 1,15, 0, 3, 0.00,60.00,Monday
8,152604007.86256424
2,15, 1,15, 0, 4, 0.00,60.00,Monday
8,164458120.22220382
2,15, 1,15, 0, 5, 0.00,60.00,Monday
8,165397780.36408812
2,15, 1,15, 0, 6, 0.00,60.00,Monday
8,870623528.1203389
2,15, 1,15, 0, 7, 0.00,60.00,Monday
8,895138382.2995976
2,15, 1,15, 0, 8, 0.00,60.00,Monday
8,770568468.9539496
2,15, 1,15, 0, 9, 0.00,60.00,Monday
8,638375857.6035204
2,15, 1,15, 0,10, 0.00,60.00,Monday
8,596329816.3918476
2,15, 1,15, 0,11, 0.00,60.00,Monday
8,516159691.0355575
2,15, 1,15, 0,12, 0.00,60.00,Monday
8,447560769.6771168
2,15, 1,15, 0,13, 0.00,60.00,Monday
8,428948758.31672883
2,15, 1,15, 0,14, 0.00,60.00,Monday
8,338109136.6735986
2,15, 1,15, 0,15, 0.00,60.00,Monday
8,321719986.7108912
2,15, 1,15, 0,16, 0.00,60.00,Monday
8,333960096.68620247
2,15, 1,15, 0,17, 0.00,60.00,Monday
8,348867477.69315
2,15, 1,15, 0,18, 0.00,60.00,Monday
8,104977505.78689963
2,15, 1,15, 0,19, 0.00,60.00,Monday
8,110823616.78568985
2,15, 1,15, 0,20, 0.00,60.00,Monday
8,98518013.73099416
2,15, 1,15, 0,21, 0.00,60.00,Monday
8,99110216.36452211
2,15, 1,15, 0,22, 0.00,60.00,Monday
8,99485803.61219071
2,15, 1,15, 0,23, 0.00,60.00,Monday
8,97002357.05338472
2,15, 1,15, 0,24, 0.00,60.00,Monday
8,103456789.62416597
2,16, 1,16, 0, 1, 0.00,60.00,Tuesday
8,97192634.87359789
2,16, 1,16, 0, 2, 0.00,60.00,Tuesday
8,109001762.01179743
2,16, 1,16, 0, 3, 0.00,60.00,Tuesday
8,107242431.75598218
2,16, 1,16, 0, 4, 0.00,60.00,Tuesday
8,134104362.61387794
2,16, 1,16, 0, 5, 0.00,60.00,Tuesday
8,132027985.37805057
2,16, 1,16, 0, 6, 0.00,60.00,Tuesday
8,734219215.0109612
2,16, 1,16, 0, 7, 0.00,60.00,Tuesday
8,674098787.9726386
2,16, 1,16, 0, 8, 0.00,60.00,Tuesday
8,636691058.3424289
2,16, 1,16, 0, 9, 0.00,60.00,Tuesday
8,552736481.4640996
2,16, 1,16, 0,10, 0.00,60.00,Tuesday
8,511655852.54667145
2,16, 1,16, 0,11, 0.00,60.00,Tuesday
8,453545020.1157847
2,16, 1,16, 0,12, 0.00,60.00,Tuesday
8,419430847.6738193
2,16, 1,16, 0,13, 0.00,60.00,Tuesday
8,390022609.3812374
2,16, 1,16, 0,14, 0.00,60.00,Tuesday
8,303533391.856359
2,16, 1,16, 0,15, 0.00,60.00,Tuesday
8,297015367.66825366
2,16, 1,16, 0,16, 0.00,60.00,Tuesday
8,299998226.6968655
2,16, 1,16, 0,17, 0.00,60.00,Tuesday
8,294262529.29650366
2,16, 1,16, 0,18, 0.00,60.00,Tuesday
8,105635052.42800225
2,16, 1,16, 0,19, 0.00,60.00,Tuesday
8,110159439.5855077
2,16, 1,16, 0,20, 0.00,60.00,Tuesday
8,99168417.14547482
2,16, 1,16, 0,21, 0.00,60.00,Tuesday
8,98451748.03077003
2,16, 1,16, 0,22, 0.00,60.00,Tuesday
8,97537453.38158432
2,16, 1,16, 0,23, 0.00,60.00,Tuesday
8,97002357.05338472
2,16, 1,16, 0,24, 0.00,60.00,Tuesday
8,97097495.9634912
2,17, 1,17, 0, 1, 0.00,60.00,Wednesday
8,97192634.87359789
2,17, 1,17, 0, 2, 0.00,60.00,Wednesday
8,102541363.91485706
2,17, 1,17, 0, 3, 0.00,60.00,Wednesday
8,96937161.60358769
2,17, 1,17, 0, 4, 0.00,60.00,Wednesday
8,100466647.33934635
2,17, 1,17, 0, 5, 0.00,60.00,Wednesday
8,101669686.75739412
2,17, 1,17, 0, 6, 0.00,60.00,Wednesday
8,566256876.8428934
2,17, 1,17, 0, 7, 0.00,60.00,Wednesday
8,598085659.9079107
2,17, 1,17, 0, 8, 0.00,60.00,Wednesday
8,501174429.97982985
2,17, 1,17, 0, 9, 0.00,60.00,Wednesday
8,450862254.59980106
2,17, 1,17, 0,10, 0.00,60.00,Wednesday
8,428937477.9207447
2,17, 1,17, 0,11, 0.00,60.00,Wednesday
8,406418232.67304474
2,17, 1,17, 0,12, 0.00,60.00,Wednesday
8,390851200.86145616
2,17, 1,17, 0,13, 0.00,60.00,Wednesday
8,368908722.4719443
2,17, 1,17, 0,14, 0.00,60.00,Wednesday
8,298028948.62328887
2,17, 1,17, 0,15, 0.00,60.00,Wednesday
8,329103533.7249338
2,17, 1,17, 0,16, 0.00,60.00,Wednesday
8,305932745.35110843
2,17, 1,17, 0,17, 0.00,60.00,Wednesday
8,324206541.0445648
2,17, 1,17, 0,18, 0.00,60.00,Wednesday
8,105658474.94650425
2,17, 1,17, 0,19, 0.00,60.00,Wednesday
8,110135789.25112735
2,17, 1,17, 0,20, 0.00,60.00,Wednesday
8,101661794.40042289
2,17, 1,17, 0,21, 0.00,60.00,Wednesday
8,116056141.14088485
2,17, 1,17, 0,22, 0.00,60.00,Wednesday
8,112504166.48028101
2,17, 1,17, 0,23, 0.00,60.00,Wednesday
8,144272487.94584697
2,17, 1,17, 0,24, 0.00,60.00,Wednesday
8,134179138.64532818
2,18, 1,18, 0, 1, 0.00,60.00,Thursday
8,190406275.58419862
2,18, 1,18, 0, 2, 0.00,60.00,Thursday
8,163164462.94355845
2,18, 1,18, 0, 3, 0.00,60.00,Thursday
8,205352935.3497325
2,18, 1,18, 0, 4, 0.00,60.00,Thursday
8,173801321.1036653
2,18, 1,18, 0, 5, 0.00,60.00,Thursday
8,267692230.50587004
2,18, 1,18, 0, 6, 0.00,60.00,Thursday
8,1140166319.3017402
2,18, 1,18, 0, 7, 0.00,60.00,Thursday
8,1075582778.299565
2,18, 1,18, 0, 8, 0.00,60.00,Thursday
8,935110684.7709959
2,18, 1,18, 0, 9, 0.00,60.00,Thursday
8,810550221.8977032
2,18, 1,18, 0,10, 0.00,60.00,Thursday
8,697792864.477588
2,18, 1,18, 0,11, 0.00,60.00,Thursday
8,594955053.9793698
2,18, 1,18, 0,12, 0.00,60.00,Thursday
8,478756740.3462215
2,18, 1,18, 0,13, 0.00,60.00,Thursday
8,433146859.863282
2,18, 1,18, 0,14, 0.00,60.00,Thursday
8,344397062.6817291
2,18, 1,18, 0,15, 0.00,60.00,Thursday
8,325321295.56979036
2,18, 1,18, 0,16, 0.00,60.00,Thursday
8,336426397.39336586
2,18, 1,18, 0,17, 0.00,60.00,Thursday
8,344117483.3527265
2,18, 1,18, 0,18, 0.00,60.00,Thursday
8,105686125.27983901
2,18, 1,18, 0,19, 0.00,60.00,Thursday
8,110107891.74130803
2,18, 1,18, 0,20, 0.00,60.00,Thursday
8,99218919.27191001
2,18, 1,18, 0,21, 0.00,60.00,Thursday
8,101676494.95272343
2,18, 1,18, 0,22, 0.00,60.00,Thursday
8,97553487.36267078
2,18, 1,18, 0,23, 0.00,60.00,Thursday
8,107906643.94820498
2,18, 1,18, 0,24, 0.00,60.00,Thursday
8,134079329.19718376
2,19, 1,19, 0, 1, 0.00,60.00,Friday
8,132139246.88873674
2,19, 1,19, 0, 2, 0.00,60.00,Friday
8,157307100.79920542
2,19, 1,19, 0, 3, 0.00,60.00,Friday
8,145080584.5660578
2,19, 1,19, 0, 4, 0.00,60.00,Friday
8,166082604.00683004
2,19, 1,19, 0, 5, 0.00,60.00,Friday
8,162026681.69731385
2,19, 1,19, 0, 6, 0.00,60.00,Friday
8,927850206.3964229
2,19, 1,19, 0, 7, 0.00,60.00,Friday
8,826308531.4661934
2,19, 1,19, 0, 8, 0.00,60.00,Friday
8,777751031.9118915
2,19, 1,19, 0, 9, 0.00,60.00,Friday
8,613800547.592841
2,19, 1,19, 0,10, 0.00,60.00,Friday
8,522610578.2124644
2,19, 1,19, 0,11, 0.00,60.00,Friday
8,467714763.3881423
2,19, 1,19, 0,12, 0.00,60.00,Friday
8,439862987.52804214
2,19, 1,19, 0,13, 0.00,60.00,Friday
8,400368154.3888915
2,19, 1,19, 0,14, 0.00,60.00,Friday
8,309958899.1363607
2,19, 1,19, 0,15, 0.00,60.00,Friday
8,304445225.81602734
2,19, 1,19, 0,16, 0.00,60.00,Friday
8,309829605.72916365
2,19, 1,19, 0,17, 0.00,60.00,Friday
8,307123875.4367587
2,19, 1,19, 0,18, 0.00,60.00,Friday
8,105699962.87304862
2,19, 1,19, 0,19, 0.00,60.00,Friday
8,110093955.99423319
2,19, 1,19, 0,20, 0.00,60.00,Friday
8,99232648.12663545
2,19, 1,19, 0,21, 0.00,60.00,Friday
8,98386938.66388646
2,19, 1,19, 0,22, 0.00,60.00,Friday
8,97557857.42779891
2,19, 1,19, 0,23, 0.00,60.00,Friday
8,98376903.51886037
2,19, 1,19, 0,24, 0.00,60.00,Friday
8,97097495.9634912
2,20, 1,20, 0, 1, 0.00,60.00,Saturday
8,97146206.10008687
2,20, 1,20, 0, 2, 0.00,60.00,Saturday
8,82213689.68223691
2,20, 1,20, 0, 3, 0.00,60.00,Saturday
8,84534210.95900129
2,20, 1,20, 0, 4, 0.00,60.00,Saturday
8,119224119.37217106
2,20, 1,20, 0, 5, 0.00,60.00,Saturday
8,95639031.1187405
2,20, 1,20, 0, 6, 0.00,60.00,Saturday
8,201987554.947064
2,20, 1,20, 0, 7, 0.00,60.00,Saturday
8,711851103.0252916
2,20, 1,20, 0, 8, 0.00,60.00,Saturday
8,596168622.0987561
2,20, 1,20, 0, 9, 0.00,60.00,Saturday
8,421667032.117998
2,20, 1,20, 0,10, 0.00,60.00,Saturday
8,345920147.9676303
2,20, 1,20, 0,11, 0.00,60.00,Saturday
8,311044759.1943183
2,20, 1,20, 0,12, 0.00,60.00,Saturday
8,290912249.13538605
2,20, 1,20, 0,13, 0.00,60.00,Saturday
8,279794626.95175725
2,20, 1,20, 0,14, 0.00,60.00,Saturday
8,266511348.21228364
2,20, 1,20, 0,15, 0.00,60.00,Saturday
8,240076299.96102285
2,20, 1,20, 0,16, 0.00,60.00,Saturday
8,52593333.67578715
2,20, 1,20, 0,17, 0.00,60.00,Saturday
8,281900172.6565019
2,20, 1,20, 0,18, 0.00,60.00,Saturday
8,54909810.19922824
2,20, 1,20, 0,19, 0.00,60.00,Saturday
8,78499340.59974273
2,20, 1,20, 0,20, 0.00,60.00,Saturday
8,87209018.52116258
2,20, 1,20, 0,21, 0.00,60.00,Saturday
8,99748401.17284186
2,20, 1,20, 0,22, 0.00,60.00,Saturday
8,99887788.49983674
2,20, 1,20, 0,23, 0.00,60.00,Saturday
8,96649862.25638278
2,20, 1,20, 0,24, 0.00,60.00,Saturday
8,94850308.7520083
2,21, 1,21, 0, 1, 0.00,60.00,Sunday
8,55602968.046116106
2,21, 1,21, 0, 2, 0.00,60.00,Sunday
8,57291090.03637655
2,21, 1,21, 0, 3, 0.00,60.00,Sunday
8,72641315.93376482
2,21, 1,21, 0, 4, 0.00,60.00,Sunday
8,88550660.12119433
2,21, 1,21, 0, 5, 0.00,60.00,Sunday
8,109344924.1841595
2,21, 1,21, 0, 6, 0.00,60.00,Sunday
8,111791041.23820567
2,21, 1,21, 0, 7, 0.00,60.00,Sunday
8,104658550.05560178
2,21, 1,21, 0, 8, 0.00,60.00,Sunday
8,66726900.814175814
2,21, 1,21, 0, 9, 0.00,60.00,Sunday
8,72136124.3866879
2,21, 1,21, 0,10, 0.00,60.00,Sunday
8,62337632.09235708
2,21, 1,21, 0,11, 0.00,60.00,Sunday
8,48513431.05651698
2,21, 1,21, 0,12, 0.00,60.00,Sunday
8,42922112.31874919
2,21, 1,21, 0,13, 0.00,60.00,Sunday
8,42132463.70234914
2,21, 1,21, 0,14, 0.00,60.00,Sunday
8,42150106.48677108
2,21, 1,21, 0,15, 0.00,60.00,Sunday
8,40831179.506857105
2,21, 1,21, 0,16, 0.00,60.00,Sunday
8,41378425.951345436
2,21, 1,21, 0,17, 0.00,60.00,Sunday
8,36137259.01596104
2,21, 1,21, 0,18, 0.00,60.00,Sunday
8,35802971.49283929
2,21, 1,21, 0,19, 0.00,60.00,Sunday
8,46410918.16548796
2,21, 1,21, 0,20, 0.00,60.00,Sunday
8,56667999.553490706
2,21, 1,21, 0,21, 0.00,60.00,Sunday
8,58658576.30430654
2,21, 1,21, 0,22, 0.00,60.00,Sunday
8,59947712.930023395
2,21, 1,21, 0,23, 0.00,60.00,Sunday
8,56904208.48589292
2,21, 1,21, 0,24, 0.00,60.00,Sunday
8,55565334.58378415
2,22, 1,22, 0, 1, 0.00,60.00,Monday
8,97428767.91384125
2,22, 1,22, 0, 2, 0.00,60.00,Monday
8,97358412.07067427
2,22, 1,22, 0, 3, 0.00,60.00,Monday
8,95575728.90692261
2,22, 1,22, 0, 4, 0.00,60.00,Monday
8,94449692.17307743
2,22, 1,22, 0, 5, 0.00,60.00,Monday
8,102513062.73024921
2,22, 1,22, 0, 6, 0.00,60.00,Monday
8,388058258.69056153
2,22, 1,22, 0, 7, 0.00,60.00,Monday
8,427963454.3198329
2,22, 1,22, 0, 8, 0.00,60.00,Monday
8,389598314.0812455
2,22, 1,22, 0, 9, 0.00,60.00,Monday